  -27.90000        4.4558325E-18
  -27.73850        4.4613465E-18
  -27.57700        4.4706751E-18
  -27.41550        4.4812721E-18
  -27.25400        4.4907425E-18
  -27.09250        4.4975923E-18
  -26.93100        4.5014520E-18
  -26.76950        4.5028842E-18
  -26.60800        4.5030679E-18
  -26.44650        4.5035315E-18
  -26.28500        4.5059113E-18
  -26.12350        4.5115522E-18
  -25.96200        4.5209614E-18
  -25.80050        4.5333642E-18
  -25.63900        4.5467347E-18
  -25.47750        4.5584546E-18
  -25.31600        4.5663559E-18
  -25.15450        4.5696071E-18
  -24.99300        4.5689846E-18
  -24.83150        4.5664315E-18
  -24.67000        4.5642279E-18
  -24.50850        4.5642474E-18
  -24.34700        4.5675681E-18
  -24.18550        4.5744006E-18
  -24.02400        4.5841357E-18
  -23.86250        4.5954035E-18
  -23.70100        4.6062475E-18
  -23.53950        4.6145912E-18
  -23.37800        4.6189670E-18
  -23.21650        4.6192065E-18
  -23.05500        4.6166675E-18
  -22.89350        4.6137570E-18
  -22.73200        4.6129571E-18
  -22.57050        4.6158448E-18
  -22.40900        4.6226017E-18
  -22.24750        4.6321626E-18
  -22.08600        4.6427745E-18
  -21.92450        4.6525990E-18
  -21.76300        4.6601180E-18
  -21.60150        4.6643801E-18
  -21.44000        4.6651977E-18
  -21.27850        4.6633345E-18
  -21.11700        4.6604845E-18
  -20.95550        4.6588657E-18
  -20.79400        4.6604278E-18
  -20.63250        4.6660224E-18
  -20.47100        4.6749845E-18
  -20.30950        4.6854029E-18
  -20.14800        4.6949291E-18
  -19.98650        4.7016925E-18
  -19.82500        4.7048656E-18
  -19.66350        4.7047254E-18
  -19.50200        4.7023663E-18
  -19.34050        4.6993318E-18
  -19.17900        4.6973043E-18
  -19.01750        4.6977957E-18
  -18.85600        4.7017467E-18
  -18.69450        4.7091082E-18
  -18.53300        4.7186613E-18
  -18.37150        4.7283220E-18
  -18.21000        4.7359134E-18
  -18.04850        4.7400617E-18
  -17.88700        4.7407342E-18
  -17.72550        4.7391531E-18
  -17.56400        4.7371840E-18
  -17.40250        4.7365880E-18
  -17.24100        4.7385083E-18
  -17.07950        4.7433055E-18
  -16.91800        4.7506112E-18
  -16.75650        4.7594227E-18
  -16.59500        4.7682239E-18
  -16.43350        4.7752669E-18
  -16.27200        4.7790931E-18
  -16.11050        4.7791539E-18
  -15.94900        4.7761843E-18
  -15.78750        4.7720244E-18
  -15.62600        4.7689063E-18
  -15.46450        4.7685564E-18
  -15.30300        4.7715972E-18
  -15.14150        4.7775061E-18
  -14.98000        4.7850285E-18
  -14.81850        4.7927109E-18
  -14.65700        4.7992746E-18
  -14.49550        4.8037898E-18
  -14.33400        4.8058102E-18
  -14.17250        4.8055620E-18
  -14.01100        4.8040797E-18
  -13.84950        4.8030466E-18
  -13.68800        4.8042282E-18
  -13.52650        4.8086925E-18
  -13.36500        4.8162508E-18
  -13.20350        4.8254830E-18
  -13.04200        4.8343599E-18
  -12.88050        4.8410948E-18
  -12.71900        4.8447476E-18
  -12.55750        4.8453387E-18
  -12.39600        4.8435842E-18
  -12.23450        4.8405617E-18
  -12.07300        4.8375098E-18
  -11.91150        4.8356991E-18
  -11.75000        4.8361904E-18
  -11.58850        4.8394185E-18
  -11.42700        4.8448192E-18
  -11.26550        4.8508411E-18
  -11.10400        4.8555126E-18
  -10.94250        4.8573328E-18
  -10.78100        4.8559952E-18
  -10.61950        4.8525045E-18
  -10.45800        4.8486585E-18
  -10.29650        4.8462589E-18
  -10.13500        4.8465124E-18
  -9.973500        4.8498666E-18
  -9.812000        4.8561400E-18
  -9.650500        4.8646637E-18
  -9.489000        4.8743007E-18
  -9.327500        4.8834886E-18
  -9.166000        4.8905308E-18
  -9.004500        4.8942035E-18
  -8.843000        4.8943656E-18
  -8.681500        4.8921509E-18
  -8.520000        4.8894964E-18
  -8.358500        4.8882234E-18
  -8.197000        4.8892016E-18
  -8.035500        4.8920698E-18
  -7.874000        4.8955890E-18
  -7.712500        4.8983047E-18
  -7.551000        4.8990694E-18
  -7.389500        4.8972260E-18
  -7.228000        4.8925847E-18
  -7.066500        4.8854428E-18
  -6.905000        4.8767273E-18
  -6.743500        4.8680510E-18
  -6.582000        4.8614033E-18
  -6.420500        4.8584366E-18
  -6.259000        4.8596861E-18
  -6.097500        4.8642248E-18
  -5.936000        4.8700449E-18
  -5.774500        4.8749658E-18
  -5.613000        4.8775611E-18
  -5.451500        4.8775917E-18
  -5.290000        4.8758356E-18
  -5.128500        4.8735831E-18
  -4.967000        4.8721889E-18
  -4.805500        4.8728391E-18
  -4.644000        4.8764328E-18
  -4.482500        4.8833608E-18
  -4.321000        4.8931844E-18
  -4.159500        4.9044659E-18
  -3.998000        4.9150563E-18
  -3.836500        4.9228711E-18
  -3.675000        4.9267870E-18
  -3.513500        4.9271352E-18
  -3.352000        4.9254978E-18
  -3.190500        4.9239254E-18
  -3.029000        4.9240697E-18
  -2.867500        4.9266803E-18
  -2.706000        4.9315933E-18
  -2.544500        4.9380048E-18
  -2.383000        4.9447459E-18
  -2.221500        4.9504539E-18
  -2.060000        4.9537779E-18
  -1.898500        4.9537626E-18
  -1.737000        4.9503455E-18
  -1.575500        4.9446500E-18
  -1.414000        4.9387600E-18
  -1.252500        4.9349628E-18
  -1.091000        4.9348131E-18
 -0.9295000        4.9385296E-18
 -0.7680000        4.9450325E-18
 -0.6065000        4.9525094E-18
 -0.4450000        4.9591285E-18
 -0.2835000        4.9635378E-18
 -0.1220000        4.9650495E-18
  3.9500002E-02    4.9636619E-18
  0.2010000        4.9600669E-18
  0.3625000        4.9556237E-18
  0.5240000        4.9521177E-18
  0.6855000        4.9512021E-18
  0.8470000        4.9536956E-18
   1.008500        4.9591066E-18
   1.170000        4.9657311E-18
   1.331500        4.9713274E-18
   1.493000        4.9740248E-18
   1.654500        4.9729846E-18
   1.816000        4.9685476E-18
   1.977500        4.9619484E-18
   2.139000        4.9548718E-18
   2.300500        4.9490824E-18
   2.462000        4.9461343E-18
   2.623500        4.9470525E-18
   2.785000        4.9519639E-18
   2.946500        4.9598606E-18
   3.108000        4.9687610E-18
   3.269500        4.9763570E-18
   3.431000        4.9809127E-18
   3.592500        4.9819463E-18
   3.754000        4.9803382E-18
   3.915500        4.9778398E-18
   4.077000        4.9763128E-18
   4.238500        4.9771073E-18
   4.400000        4.9807886E-18
   4.561500        4.9871393E-18
   4.723000        4.9952474E-18
   4.884500        5.0036122E-18
   5.046000        5.0103757E-18
   5.207500        5.0138105E-18
   5.369000        5.0129920E-18
   5.530500        5.0083354E-18
   5.692000        5.0016129E-18
   5.853500        4.9953417E-18
   6.015000        4.9918079E-18
   6.176500        4.9922335E-18
   6.338000        4.9964823E-18
   6.499500        5.0033376E-18
   6.661000        5.0110709E-18
   6.822500        5.0179522E-18
   6.984000        5.0225749E-18
   7.145500        5.0240746E-18
   7.307000        5.0223743E-18
   7.468500        5.0183910E-18
   7.630000        5.0139818E-18
   7.791500        5.0114266E-18
   7.953000        5.0125611E-18
   8.114500        5.0179659E-18
   8.276000        5.0266773E-18
   8.437500        5.0366035E-18
   8.599000        5.0453997E-18
   8.760500        5.0513211E-18
   8.922000        5.0536575E-18
   9.083500        5.0526868E-18
   9.245000        5.0493938E-18
   9.406500        5.0451921E-18
   9.568000        5.0417105E-18
   9.729500        5.0405086E-18
   9.891000        5.0426171E-18
   10.05250        5.0480475E-18
   10.21400        5.0555749E-18
   10.37550        5.0630745E-18
   10.53700        5.0683503E-18
   10.69850        5.0700464E-18
   10.86000        5.0681579E-18
   11.02150        5.0638913E-18
   11.18300        5.0590441E-18
   11.34450        5.0553036E-18
   11.50600        5.0538068E-18
   11.66750        5.0550289E-18
   11.82900        5.0588203E-18
   11.99050        5.0644418E-18
   12.15200        5.0706097E-18
   12.31350        5.0757200E-18
   12.47500        5.0783517E-18
   12.63650        5.0778897E-18
   12.79800        5.0749235E-18
   12.95950        5.0711118E-18
   13.12100        5.0685157E-18
   13.28250        5.0687407E-18
   13.44400        5.0723406E-18
   13.60550        5.0787372E-18
   13.76700        5.0865859E-18
   13.92850        5.0942935E-18
   14.09000        5.1004143E-18
   14.25150        5.1038822E-18
   14.41300        5.1041639E-18
   14.57450        5.1014110E-18
   14.73600        5.0965522E-18
   14.89750        5.0911321E-18
   15.05900        5.0868402E-18
   15.22050        5.0848571E-18
   15.38200        5.0853724E-18
   15.54350        5.0875429E-18
   15.70500        5.0899314E-18
   15.86650        5.0911842E-18
   16.02800        5.0905688E-18
   16.18950        5.0881654E-18
   16.35100        5.0847189E-18
   16.51250        5.0813349E-18
   16.67400        5.0791892E-18
   16.83550        5.0792844E-18
   16.99700        5.0822179E-18
   17.15850        5.0879462E-18
   17.32000        5.0956720E-18
   17.48150        5.1039802E-18
   17.64300        5.1112826E-18
   17.80450        5.1164037E-18
   17.96600        5.1190262E-18
   18.12750        5.1197637E-18
   18.28900        5.1198418E-18
   18.45050        5.1205727E-18
   18.61200        5.1228867E-18
   18.77350        5.1270867E-18
   18.93500        5.1328360E-18
   19.09650        5.1392876E-18
   19.25800        5.1452963E-18
   19.41950        5.1497027E-18
   19.58100        5.1516767E-18
   19.74250        5.1510563E-18
   19.90400        5.1485111E-18
   20.06550        5.1453939E-18
   20.22700        5.1432895E-18
   20.38850        5.1434347E-18
   20.55000        5.1462794E-18
   20.71150        5.1513744E-18
   20.87300        5.1575919E-18
   21.03450        5.1635327E-18
   21.19600        5.1679296E-18
   21.35750        5.1699562E-18
   21.51900        5.1694082E-18
   21.68050        5.1667757E-18
   21.84200        5.1631638E-18
   22.00350        5.1600201E-18
   22.16500        5.1586755E-18
   22.32650        5.1598530E-18
   22.48800        5.1633602E-18
   22.64950        5.1681434E-18
   22.81100        5.1726908E-18
   22.97250        5.1755988E-18
   23.13400        5.1760359E-18
   23.29550        5.1739440E-18
   23.45700        5.1699657E-18
   23.61850        5.1652144E-18
   23.78000        5.1609961E-18
   23.94150        5.1585216E-18
   24.10300        5.1586048E-18
   24.26450        5.1613804E-18
   24.42600        5.1661689E-18
   24.58750        5.1716068E-18
   24.74900        5.1760885E-18
   24.91050        5.1783549E-18
   25.07200        5.1779765E-18
   25.23350        5.1754896E-18
   25.39500        5.1721523E-18
   25.55650        5.1694632E-18
   25.71800        5.1686848E-18
   25.87950        5.1705369E-18
   26.04100        5.1750772E-18
   26.20250        5.1817207E-18
   26.36400        5.1893358E-18
   26.52550        5.1964495E-18
   26.68700        5.2016033E-18
   26.84850        5.2038098E-18
   27.01000        5.2029491E-18
   27.17150        5.1998894E-18
   27.33300        5.1962113E-18
   27.49450        5.1936359E-18
   27.65600        5.1934055E-18
   27.81750        5.1959011E-18
   27.97900        5.2006131E-18
   28.14050        5.2064125E-18
   28.30200        5.2119319E-18
   28.46350        5.2159164E-18
   28.62500        5.2174868E-18
   28.78650        5.2163407E-18
   28.94800        5.2128811E-18
   29.10950        5.2082096E-18
   29.27100        5.2038875E-18
   29.43250        5.2014763E-18
   29.59400        5.2019941E-18
   29.75550        5.2055398E-18
   29.91700        5.2112763E-18
   30.07850        5.2177738E-18
   30.24000        5.2235595E-18
   30.40150        5.2275966E-18
   30.56300        5.2295351E-18
   30.72450        5.2296931E-18
   30.88600        5.2288651E-18
   31.04750        5.2280689E-18
   31.20900        5.2282877E-18
   31.37050        5.2302018E-18
   31.53200        5.2339469E-18
   31.69350        5.2389724E-18
   31.85500        5.2441137E-18
   32.01650        5.2479241E-18
   32.17800        5.2491815E-18
   32.33950        5.2473555E-18
   32.50100        5.2428353E-18
   32.66250        5.2367998E-18
   32.82400        5.2308214E-18
   32.98550        5.2263707E-18
   33.14700        5.2244364E-18
   33.30850        5.2253338E-18
   33.47000        5.2287232E-18
   33.63150        5.2337570E-18
   33.79300        5.2393206E-18
   33.95450        5.2443247E-18
   34.11600        5.2480127E-18
   34.27750        5.2502030E-18
   34.43900        5.2513603E-18
   34.60050        5.2524273E-18
   34.76200        5.2544473E-18
   34.92350        5.2581237E-18
   35.08500        5.2635078E-18
   35.24650        5.2699470E-18
   35.40800        5.2763097E-18
   35.56950        5.2813712E-18
   35.73100        5.2842113E-18
   35.89250        5.2844711E-18
   36.05400        5.2824221E-18
   36.21550        5.2788619E-18
   36.37700        5.2748820E-18
   36.53850        5.2715724E-18
   36.70000        5.2697290E-18
   36.86150        5.2696261E-18
   37.02300        5.2709417E-18
   37.18450        5.2728711E-18
   37.34600        5.2744142E-18
   37.50750        5.2747389E-18
   37.66900        5.2734919E-18
   37.83050        5.2709247E-18
   37.99200        5.2677963E-18
   38.15350        5.2650931E-18
   38.31500        5.2636803E-18
   38.47650        5.2640078E-18
   38.63800        5.2659712E-18
   38.79950        5.2689494E-18
   38.96100        5.2720013E-18
   39.12250        5.2741586E-18
   39.28400        5.2747298E-18
   39.44550        5.2735295E-18
   39.60700        5.2709686E-18
   39.76850        5.2679663E-18
   39.93000        5.2657003E-18
   40.09150        5.2652660E-18
   40.25300        5.2673401E-18
   40.41450        5.2719579E-18
   40.57600        5.2784761E-18
   40.73750        5.2857408E-18
   40.89900        5.2924190E-18
   41.06050        5.2973879E-18
   41.22200        5.3000709E-18
   41.38350        5.3006011E-18
   41.54500        5.2997598E-18
   41.70650        5.2987101E-18
   41.86800        5.2986117E-18
   42.02950        5.3002437E-18
   42.19100        5.3037630E-18
   42.35250        5.3086624E-18
   42.51400        5.3139303E-18
   42.67550        5.3183615E-18
   42.83700        5.3209212E-18
   42.99850        5.3210655E-18
   43.16000        5.3189409E-18
   43.32150        5.3153791E-18
   43.48300        5.3116832E-18
   43.64450        5.3092364E-18
   43.80600        5.3090499E-18
   43.96750        5.3114069E-18
   44.12900        5.3157405E-18
   44.29050        5.3208012E-18
   44.45200        5.3250554E-18
   44.61350        5.3271714E-18
   44.77500        5.3264178E-18
   44.93650        5.3228630E-18
   45.09800        5.3173399E-18
   45.25950        5.3112192E-18
   45.42100        5.3060543E-18
   45.58250        5.3031835E-18
   45.74400        5.3033622E-18
   45.90550        5.3065216E-18
   46.06700        5.3117506E-18
   46.22850        5.3175426E-18
   46.39000        5.3222670E-18
   46.55150        5.3247018E-18
   46.71300        5.3244429E-18
   46.87450        5.3220217E-18
   47.03600        5.3187039E-18
   47.19750        5.3160648E-18
   47.35900        5.3155052E-18
   47.52050        5.3178689E-18
   47.68200        5.3232311E-18
   47.84350        5.3308821E-18
   48.00500        5.3394939E-18
   48.16650        5.3474344E-18
   48.32800        5.3531924E-18
   48.48950        5.3558084E-18
   48.65100        5.3551785E-18
   48.81250        5.3520893E-18
   48.97400        5.3479505E-18
   49.13550        5.3443031E-18
   49.29700        5.3422972E-18
   49.45850        5.3423476E-18
   49.62000        5.3440702E-18
   49.78150        5.3464877E-18
   49.94300        5.3483881E-18
   50.10450        5.3487033E-18
   50.26600        5.3468210E-18
   50.42750        5.3427695E-18
   50.58900        5.3372568E-18
   50.75050        5.3315418E-18
   50.91200        5.3271279E-18
   51.07350        5.3253445E-18
   51.23500        5.3269389E-18
   51.39650        5.3318267E-18
   51.55800        5.3391092E-18
   51.71950        5.3473508E-18
   51.88100        5.3550118E-18
   52.04250        5.3608740E-18
   52.20400        5.3643254E-18
   52.36550        5.3654487E-18
   52.52700        5.3649202E-18
   52.68850        5.3637786E-18
   52.85000        5.3631219E-18
   53.01150        5.3637935E-18
   53.17300        5.3661320E-18
   53.33450        5.3698568E-18
   53.49600        5.3741465E-18
   53.65750        5.3778928E-18
   53.81900        5.3800605E-18
   53.98050        5.3800253E-18
   54.14200        5.3777770E-18
   54.30350        5.3739191E-18
   54.46500        5.3694792E-18
   54.62650        5.3655968E-18
   54.78800        5.3631955E-18
   54.94950        5.3627331E-18
   55.11100        5.3641008E-18
   55.27250        5.3666957E-18
   55.43400        5.3696425E-18
   55.59550        5.3720765E-18
   55.75700        5.3734103E-18
   55.91850        5.3734906E-18
   56.08000        5.3726084E-18
   56.24150        5.3713862E-18
   56.40300        5.3705810E-18
   56.56450        5.3708597E-18
   56.72600        5.3726055E-18
   56.88750        5.3757939E-18
   57.04900        5.3799839E-18
   57.21050        5.3844404E-18
   57.37200        5.3883637E-18
   57.53350        5.3911430E-18
   57.69500        5.3925377E-18
   57.85650        5.3927018E-18
   58.01800        5.3920608E-18
   58.17950        5.3911041E-18
   58.34100        5.3902013E-18
   58.50250        5.3895127E-18
   58.66400        5.3889915E-18
   58.82550        5.3884352E-18
   58.98700        5.3875580E-18
   59.14850        5.3860724E-18
   59.31000        5.3838068E-18
   59.47150        5.3808401E-18
   59.63300        5.3775926E-18
   59.79450        5.3747859E-18
   59.95600        5.3732350E-18
   60.11750        5.3735572E-18
   60.27900        5.3759171E-18
   60.44050        5.3799711E-18
   60.60200        5.3850136E-18
   60.76350        5.3902455E-18
   60.92500        5.3950200E-18
   61.08650        5.3989578E-18
   61.24800        5.4019415E-18
   61.40950        5.4040528E-18
   61.57100        5.4055169E-18
   61.73250        5.4066460E-18
   61.89400        5.4077421E-18
   62.05550        5.4089497E-18
   62.21700        5.4101281E-18
   62.37850        5.4108481E-18
   62.54000        5.4105739E-18
   62.70150        5.4089671E-18
   62.86300        5.4061444E-18
   63.02450        5.4027314E-18
   63.18600        5.3996733E-18
   63.34750        5.3979015E-18
   63.50900        5.3980401E-18
   63.67050        5.4002577E-18
   63.83200        5.4042869E-18
   63.99350        5.4095217E-18
   64.15500        5.4151275E-18
   64.31650        5.4201676E-18
   64.47800        5.4237807E-18
   64.63950        5.4254288E-18
   64.80100        5.4251191E-18
   64.96250        5.4234697E-18
   65.12400        5.4215274E-18
   65.28550        5.4203826E-18
   65.44700        5.4207515E-18
   65.60850        5.4227297E-18
   65.77000        5.4258044E-18
   65.93150        5.4290850E-18
   66.09300        5.4316054E-18
   66.25450        5.4325868E-18
   66.41600        5.4316141E-18
   66.57750        5.4287458E-18
   66.73900        5.4245566E-18
   66.90050        5.4200741E-18
   67.06200        5.4165491E-18
   67.22350        5.4150758E-18
   67.38500        5.4161880E-18
   67.54650        5.4196171E-18
   67.70800        5.4243465E-18
   67.86950        5.4289605E-18
   68.03100        5.4321278E-18
   68.19250        5.4330203E-18
   68.35400        5.4315376E-18
   68.51550        5.4282909E-18
   68.67700        5.4244213E-18
   68.83850        5.4213086E-18
   69.00000        5.4202209E-18
   69.16150        5.4219543E-18
   69.32300        5.4265414E-18
   69.48450        5.4331576E-18
   69.64600        5.4403011E-18
   69.80750        5.4462382E-18
   69.96900        5.4495548E-18
   70.13050        5.4496073E-18
   70.29200        5.4466973E-18
   70.45350        5.4419303E-18
   70.61500        5.4368485E-18
   70.77650        5.4329789E-18
   70.93800        5.4314267E-18
   71.09950        5.4325860E-18
   71.26100        5.4360250E-18
   71.42250        5.4405873E-18
   71.58400        5.4447166E-18
   71.74550        5.4469591E-18
   71.90700        5.4464831E-18
   72.06850        5.4434093E-18
   72.23000        5.4388060E-18
   72.39150        5.4343463E-18
   72.55300        5.4317568E-18
   72.71450        5.4322766E-18
   72.87600        5.4363038E-18
   73.03750        5.4432893E-18
   73.19900        5.4518742E-18
   73.36050        5.4602147E-18
   73.52200        5.4664376E-18
   73.68350        5.4691495E-18
   73.84500        5.4678719E-18
   74.00650        5.4632384E-18
   74.16800        5.4568311E-18
   74.32950        5.4506827E-18
   74.49100        5.4466175E-18
   74.65250        5.4456952E-18
   74.81400        5.4479765E-18
   74.97550        5.4526352E-18
   75.13700        5.4583246E-18
   75.29850        5.4636090E-18
   75.46000        5.4673466E-18
   75.62150        5.4689509E-18
   75.78300        5.4685378E-18
   75.94450        5.4669095E-18
   76.10600        5.4653316E-18
   76.26750        5.4651025E-18
   76.42900        5.4670352E-18
   76.59050        5.4710805E-18
   76.75200        5.4762909E-18
   76.91350        5.4811659E-18
   77.07500        5.4842290E-18
   77.23650        5.4845561E-18
   77.39800        5.4820460E-18
   77.55950        5.4773696E-18
   77.72100        5.4717146E-18
   77.88250        5.4664719E-18
   78.04400        5.4629406E-18
   78.20550        5.4620552E-18
   78.36700        5.4641252E-18
   78.52850        5.4686697E-18
   78.69000        5.4744653E-18
   78.85150        5.4798912E-18
   79.01300        5.4834907E-18
   79.17450        5.4844986E-18
   79.33600        5.4830796E-18
   79.49750        5.4801630E-18
   79.65900        5.4769858E-18
   79.82050        5.4746031E-18
   79.98200        5.4735918E-18
   80.14350        5.4739984E-18
   80.30500        5.4754422E-18
   80.46650        5.4772554E-18
   80.62800        5.4786137E-18
   80.78950        5.4787266E-18
   80.95100        5.4771061E-18
   81.11250        5.4738565E-18
   81.27400        5.4697889E-18
   81.43550        5.4662200E-18
   81.59700        5.4644767E-18
   81.75850        5.4653403E-18
   81.92000        5.4687115E-18
   82.08150        5.4736675E-18
   82.24300        5.4788432E-18
   82.40450        5.4829121E-18
   82.56600        5.4849399E-18
   82.72750        5.4845346E-18
   82.88900        5.4818570E-18
   83.05050        5.4775813E-18
   83.21200        5.4728122E-18
   83.37350        5.4688794E-18
   83.53500        5.4669851E-18
   83.69650        5.4677672E-18
   83.85800        5.4710185E-18
   84.01950        5.4757417E-18
   84.18100        5.4805662E-18
   84.34250        5.4843320E-18
   84.50400        5.4865364E-18
   84.66550        5.4874479E-18
   84.82700        5.4878884E-18
   84.98850        5.4888645E-18
   85.15000        5.4912315E-18
   85.31150        5.4954890E-18
   85.47300        5.5016606E-18
   85.63450        5.5092317E-18
   85.79600        5.5171570E-18
   85.95750        5.5240354E-18
   86.11900        5.5284993E-18
   86.28050        5.5297107E-18
   86.44200        5.5277445E-18
   86.60350        5.5236342E-18
   86.76500        5.5190268E-18
   86.92650        5.5156002E-18
   87.08800        5.5145199E-18
   87.24950        5.5161519E-18
   87.41100        5.5200769E-18
   87.57250        5.5253097E-18
   87.73400        5.5305895E-18
   87.89550        5.5346758E-18
   88.05700        5.5366329E-18
   88.21850        5.5360973E-18
   88.38000        5.5334206E-18
   88.54150        5.5295911E-18
   88.70300        5.5258730E-18
   88.86450        5.5232889E-18
   89.02600        5.5221779E-18
   89.18750        5.5220621E-18
   89.34900        5.5218744E-18
   89.51050        5.5204289E-18
   89.67200        5.5168947E-18
   89.83350        5.5110850E-18
   89.99500        5.5035163E-18
   90.15650        5.4952793E-18
   90.31800        5.4878107E-18
   90.47950        5.4825949E-18
   90.64100        5.4808036E-18
   90.80250        5.4829410E-18
   90.96400        5.4886147E-18
   91.12550        5.4965858E-18
   91.28700        5.5051293E-18
   91.44850        5.5125901E-18
   91.61000        5.5178878E-18
   91.77150        5.5207684E-18
   91.93300        5.5217247E-18
   92.09450        5.5216965E-18
   92.25600        5.5217168E-18
   92.41750        5.5226242E-18
   92.57900        5.5248663E-18
   92.74050        5.5283793E-18
   92.90200        5.5325467E-18
   93.06350        5.5363169E-18
   93.22500        5.5385123E-18
   93.38650        5.5382782E-18
   93.54800        5.5354736E-18
   93.70950        5.5308042E-18
   93.87100        5.5255913E-18
   94.03250        5.5212867E-18
   94.19400        5.5189722E-18
   94.35550        5.5190578E-18
   94.51700        5.5212581E-18
   94.67850        5.5247699E-18
   94.84000        5.5285199E-18
   95.00150        5.5314122E-18
   95.16300        5.5325839E-18
   95.32450        5.5316736E-18
   95.48600        5.5290287E-18
   95.64750        5.5257100E-18
   95.80900        5.5231879E-18
   95.97050        5.5228008E-18
   96.13200        5.5251996E-18
   96.29350        5.5300701E-18
   96.45500        5.5362702E-18
   96.61650        5.5422921E-18
   96.77800        5.5467977E-18
   96.93950        5.5489873E-18
   97.10100        5.5487213E-18
   97.26250        5.5464706E-18
   97.42400        5.5431916E-18
   97.58550        5.5401704E-18
   97.74700        5.5387646E-18
   97.90850        5.5400140E-18
   98.07000        5.5442211E-18
   98.23150        5.5507140E-18
   98.39300        5.5579965E-18
   98.55450        5.5642790E-18
   98.71600        5.5681584E-18
   98.87750        5.5691159E-18
   99.03900        5.5676063E-18
   99.20050        5.5647583E-18
   99.36200        5.5619025E-18
   99.52350        5.5601600E-18
   99.68500        5.5601898E-18
   99.84650        5.5620596E-18
   100.0080        5.5651740E-18
   100.1695        5.5682879E-18
   100.3310        5.5697379E-18
   100.4925        5.5679368E-18
   100.6540        5.5620245E-18
   100.8155        5.5523705E-18
   100.9770        5.5406398E-18
   101.1385        5.5293227E-18
   101.3000        5.5209459E-18
   101.4615        5.5173282E-18
   101.6230        5.5191960E-18
   101.7845        5.5262142E-18
   101.9460        5.5372926E-18
   102.1075        5.5509502E-18
   102.2690        5.5656322E-18
   102.4305        5.5799979E-18
   102.5920        5.5932075E-18
   102.7535        5.6051346E-18
   102.9150        5.6163268E-18
   103.0765        5.6276162E-18
   103.2380        5.6394569E-18
   103.3995        5.6512950E-18
   103.5610        5.6613225E-18
   103.7225        5.6667790E-18
   103.8840        5.6646710E-18
   104.0455        5.6525821E-18
   104.2070        5.6292631E-18
   104.3685        5.5948797E-18
   104.5300        5.5509891E-18
   104.6915        5.5003697E-18
   104.8530        5.4467610E-18
   105.0145        5.3944584E-18
   105.1760        5.3477632E-18
   105.3375        5.3103970E-18
   105.4990        5.2851212E-18
   105.6605        5.2737553E-18
   105.8220        5.2775682E-18
   105.9835        5.2977932E-18
   106.1450        5.3359097E-18
   106.3065        5.3934806E-18
   106.4680        5.4715789E-18
   106.6295        5.5700585E-18
   106.7910        5.6869221E-18
   106.9525        5.8179513E-18
   107.1140        5.9565888E-18
   107.2755        6.0940493E-18
   107.4370        6.2196963E-18
   107.5985        6.3217601E-18
   107.7600        6.3883982E-18
   107.9215        6.4089424E-18
   108.0830        6.3750384E-18
   108.2445        6.2814181E-18
   108.4060        6.1262361E-18
   108.5675        5.9111352E-18
   108.7290        5.6412903E-18
   108.8905        5.3255890E-18
   109.0520        4.9769009E-18
   109.2135        4.6122338E-18
   109.3750        4.2525773E-18
   109.5365        3.9223507E-18
   109.6980        3.6484604E-18
   109.8595        3.4589906E-18
   110.0210        3.3814788E-18
   110.1825        3.4407258E-18
   110.3440        3.6562082E-18
   110.5055        4.0393641E-18
   110.6670        4.5911705E-18
   110.8285        5.3004212E-18
   110.9900        6.1428984E-18
   111.1515        7.0814519E-18
   111.3130        8.0668581E-18
   111.4745        9.0394099E-18
   111.6360        9.9312768E-18
   111.7975        1.0669729E-17
   111.9590        1.1181216E-17
   112.1205        1.1396107E-17
   112.2820        1.1253858E-17
   112.4435        1.0708321E-17
   112.6050        9.7330157E-18
   112.7665        8.3261560E-18
   112.9280        6.5150792E-18
   113.0895        4.3594701E-18
   113.2510        1.9526932E-18
   113.4125       -5.7936020E-19
   113.5740       -3.0822212E-18
   113.7355       -5.3795319E-18
   113.8970       -7.2822144E-18
   114.0585       -8.5997601E-18
   114.2200       -9.1532357E-18
   114.3815       -8.7894558E-18
   114.5430       -7.3955191E-18
   114.7045       -4.9126480E-18
   114.8660       -1.3481667E-18
   115.0275        3.2154673E-18
   115.1890        8.6154194E-18
   115.3505        1.4607770E-17
   115.5120        2.0871989E-17
   115.6735        2.7021264E-17
   115.8350        3.2619133E-17
   115.9965        3.7202395E-17
   116.1580        4.0309590E-17
   116.3195        4.1513710E-17
   116.4810        4.0457103E-17
   116.6425        3.6886521E-17
   116.8040        3.0685827E-17
   116.9655        2.1903872E-17
   117.1270        1.0774874E-17
   117.2885       -2.2714603E-18
   117.4500       -1.6612339E-17
   117.6115       -3.1448411E-17
   117.7730       -4.5835011E-17
   117.9345       -5.8727679E-17
   118.0960       -6.9040623E-17
   118.2575       -7.5715984E-17
   118.4190       -7.7800803E-17
   118.5805       -7.4527564E-17
   118.7420       -6.5393088E-17