  -27.90000        1.0089592E-17
  -27.73850        1.0117008E-17
  -27.57700        1.0152189E-17
  -27.41550        1.0173402E-17
  -27.25400        1.0175224E-17
  -27.09250        1.0172170E-17
  -26.93100        1.0184518E-17
  -26.76950        1.0219175E-17
  -26.60800        1.0262752E-17
  -26.44650        1.0293010E-17
  -26.28500        1.0298425E-17
  -26.12350        1.0288377E-17
  -25.96200        1.0284900E-17
  -25.80050        1.0303368E-17
  -25.63900        1.0339282E-17
  -25.47750        1.0372739E-17
  -25.31600        1.0386386E-17
  -25.15450        1.0380752E-17
  -24.99300        1.0373421E-17
  -24.83150        1.0383040E-17
  -24.67000        1.0412642E-17
  -24.50850        1.0447163E-17
  -24.34700        1.0467122E-17
  -24.18550        1.0466051E-17
  -24.02400        1.0456062E-17
  -23.86250        1.0456762E-17
  -23.70100        1.0477657E-17
  -23.53950        1.0509824E-17
  -23.37800        1.0534127E-17
  -23.21650        1.0538364E-17
  -23.05500        1.0527950E-17
  -22.89350        1.0520749E-17
  -22.73200        1.0531006E-17
  -22.57050        1.0556960E-17
  -22.40900        1.0583070E-17
  -22.24750        1.0594501E-17
  -22.08600        1.0590551E-17
  -21.92450        1.0584950E-17
  -21.76300        1.0593009E-17
  -21.60150        1.0617476E-17
  -21.44000        1.0645926E-17
  -21.27850        1.0661901E-17
  -21.11700        1.0659585E-17
  -20.95550        1.0648770E-17
  -20.79400        1.0645816E-17
  -20.63250        1.0659042E-17
  -20.47100        1.0681794E-17
  -20.30950        1.0699286E-17
  -20.14800        1.0702652E-17
  -19.98650        1.0697239E-17
  -19.82500        1.0697561E-17
  -19.66350        1.0713667E-17
  -19.50200        1.0741492E-17
  -19.34050        1.0766072E-17
  -19.17900        1.0774719E-17
  -19.01750        1.0768143E-17
  -18.85600        1.0759466E-17
  -18.69450        1.0762114E-17
  -18.53300        1.0777751E-17
  -18.37150        1.0795267E-17
  -18.21000        1.0801692E-17
  -18.04850        1.0794881E-17
  -17.88700        1.0786184E-17
  -17.72550        1.0790475E-17
  -17.56400        1.0812528E-17
  -17.40250        1.0842220E-17
  -17.24100        1.0863097E-17
  -17.07950        1.0866638E-17
  -16.91800        1.0859326E-17
  -16.75650        1.0856064E-17
  -16.59500        1.0865929E-17
  -16.43350        1.0883298E-17
  -16.27200        1.0892628E-17
  -16.11050        1.0882699E-17
  -15.94900        1.0857439E-17
  -15.78750        1.0833291E-17
  -15.62600        1.0825258E-17
  -15.46450        1.0834062E-17
  -15.30300        1.0846081E-17
  -15.14150        1.0846265E-17
  -14.98000        1.0832462E-17
  -14.81850        1.0818100E-17
  -14.65700        1.0820581E-17
  -14.49550        1.0845632E-17
  -14.33400        1.0881701E-17
  -14.17250        1.0909633E-17
  -14.01100        1.0919130E-17
  -13.84950        1.0917281E-17
  -13.68800        1.0921415E-17
  -13.52650        1.0942594E-17
  -13.36500        1.0974619E-17
  -13.20350        1.0998614E-17
  -13.04200        1.0999418E-17
  -12.88050        1.0979230E-17
  -12.71900        1.0956249E-17
  -12.55750        1.0949272E-17
  -12.39600        1.0961797E-17
  -12.23450        1.0979689E-17
  -12.07300        1.0984493E-17
  -11.91150        1.0970472E-17
  -11.75000        1.0950097E-17
  -11.58850        1.0942968E-17
  -11.42700        1.0958017E-17
  -11.26550        1.0984954E-17
  -11.10400        1.1002783E-17
  -10.94250        1.0998040E-17
  -10.78100        1.0976658E-17
  -10.61950        1.0958880E-17
  -10.45800        1.0961699E-17
  -10.29650        1.0984314E-17
  -10.13500        1.1009432E-17
  -9.973500        1.1019103E-17
  -9.812000        1.1010894E-17
  -9.650500        1.0999950E-17
  -9.489000        1.1005122E-17
  -9.327500        1.1031612E-17
  -9.166000        1.1065676E-17
  -9.004500        1.1086202E-17
  -8.843000        1.1082902E-17
  -8.681500        1.1065030E-17
  -8.520000        1.1052959E-17
  -8.358500        1.1060206E-17
  -8.197000        1.1081885E-17
  -8.035500        1.1099725E-17
  -7.874000        1.1098922E-17
  -7.712500        1.1081680E-17
  -7.551000        1.1065360E-17
  -7.389500        1.1067039E-17
  -7.228000        1.1088393E-17
  -7.066500        1.1114371E-17
  -6.905000        1.1126689E-17
  -6.743500        1.1119966E-17
  -6.582000        1.1106073E-17
  -6.420500        1.1103012E-17
  -6.259000        1.1118489E-17
  -6.097500        1.1142928E-17
  -5.936000        1.1158062E-17
  -5.774500        1.1153214E-17
  -5.613000        1.1134616E-17
  -5.451500        1.1119617E-17
  -5.290000        1.1121248E-17
  -5.128500        1.1137160E-17
  -4.967000        1.1152718E-17
  -4.805500        1.1155133E-17
  -4.644000        1.1145569E-17
  -4.482500        1.1138255E-17
  -4.321000        1.1147495E-17
  -4.159500        1.1174466E-17
  -3.998000        1.1205732E-17
  -3.836500        1.1224686E-17
  -3.675000        1.1225496E-17
  -3.513500        1.1217055E-17
  -3.352000        1.1213723E-17
  -3.190500        1.1221636E-17
  -3.029000        1.1233228E-17
  -2.867500        1.1234845E-17
  -2.706000        1.1220248E-17
  -2.544500        1.1197470E-17
  -2.383000        1.1182617E-17
  -2.221500        1.1186237E-17
  -2.060000        1.1204625E-17
  -1.898500        1.1223865E-17
  -1.737000        1.1232748E-17
  -1.575500        1.1232658E-17
  -1.414000        1.1235454E-17
  -1.252500        1.1251497E-17
  -1.091000        1.1279023E-17
 -0.9295000        1.1304819E-17
 -0.7680000        1.1315662E-17
 -0.6065000        1.1310060E-17
 -0.4450000        1.1299481E-17
 -0.2835000        1.1297884E-17
 -0.1220000        1.1309116E-17
  3.9500002E-02    1.1323694E-17
  0.2010000        1.1327940E-17
  0.3625000        1.1317045E-17
  0.5240000        1.1300023E-17
  0.6855000        1.1291895E-17
  0.8470000        1.1300163E-17
   1.008500        1.1317967E-17
   1.170000        1.1330248E-17
   1.331500        1.1327420E-17
   1.493000        1.1314092E-17
   1.654500        1.1304830E-17
   1.816000        1.1310751E-17
   1.977500        1.1329162E-17
   2.139000        1.1345781E-17
   2.300500        1.1347674E-17
   2.462000        1.1335238E-17
   2.623500        1.1322256E-17
   2.785000        1.1323831E-17
   2.946500        1.1342965E-17
   3.108000        1.1367884E-17
   3.269500        1.1382593E-17
   3.431000        1.1381152E-17
   3.592500        1.1372804E-17
   3.754000        1.1373269E-17
   3.915500        1.1390052E-17
   4.077000        1.1415047E-17
   4.238500        1.1431276E-17
   4.400000        1.1427839E-17
   4.561500        1.1409731E-17
   4.723000        1.1393697E-17
   4.884500        1.1393759E-17
   5.046000        1.1409301E-17
   5.207500        1.1426284E-17
   5.369000        1.1430437E-17
   5.530500        1.1420482E-17
   5.692000        1.1409525E-17
   5.853500        1.1413265E-17
   6.015000        1.1435597E-17
   6.176500        1.1464483E-17
   6.338000        1.1481856E-17
   6.499500        1.1478839E-17
   6.661000        1.1462837E-17
   6.822500        1.1450379E-17
   6.984000        1.1452229E-17
   7.145500        1.1464096E-17
   7.307000        1.1471131E-17
   7.468500        1.1462045E-17
   7.630000        1.1440110E-17
   7.791500        1.1421154E-17
   7.953000        1.1420285E-17
   8.114500        1.1439097E-17
   8.276000        1.1464630E-17
   8.437500        1.1480830E-17
   8.599000        1.1482273E-17
   8.760500        1.1478039E-17
   8.922000        1.1482552E-17
   9.083500        1.1501793E-17
   9.245000        1.1527295E-17
   9.406500        1.1543200E-17
   9.568000        1.1540026E-17
   9.729500        1.1522850E-17
   9.891000        1.1506775E-17
   10.05250        1.1503832E-17
   10.21400        1.1513052E-17
   10.37550        1.1522332E-17
   10.53700        1.1520170E-17
   10.69850        1.1506566E-17
   10.86000        1.1493361E-17
   11.02150        1.1493847E-17
   11.18300        1.1511016E-17
   11.34450        1.1534943E-17
   11.50600        1.1551452E-17
   11.66750        1.1554189E-17
   11.82900        1.1549407E-17
   11.99050        1.1549420E-17
   12.15200        1.1560923E-17
   12.31350        1.1578783E-17
   12.47500        1.1590773E-17
   12.63650        1.1588805E-17
   12.79800        1.1576426E-17
   12.95950        1.1565857E-17
   13.12100        1.1567347E-17
   13.28250        1.1580436E-17
   13.44400        1.1594864E-17
   13.60550        1.1600065E-17
   13.76700        1.1594531E-17
   13.92850        1.1586631E-17
   14.09000        1.1586388E-17
   14.25150        1.1595899E-17
   14.41300        1.1607203E-17
   14.57450        1.1609506E-17
   14.73600        1.1599099E-17
   14.89750        1.1582948E-17
   15.05900        1.1572700E-17
   15.22050        1.1574634E-17
   15.38200        1.1584660E-17
   15.54350        1.1592782E-17
   15.70500        1.1592786E-17
   15.86650        1.1588144E-17
   16.02800        1.1588752E-17
   16.18950        1.1601503E-17
   16.35100        1.1623447E-17
   16.51250        1.1643853E-17
   16.67400        1.1653378E-17
   16.83550        1.1651970E-17
   16.99700        1.1648327E-17
   17.15850        1.1651457E-17
   17.32000        1.1662142E-17
   17.48150        1.1672193E-17
   17.64300        1.1672231E-17
   17.80450        1.1660821E-17
   17.96600        1.1646500E-17
   18.12750        1.1640674E-17
   18.28900        1.1647749E-17
   18.45050        1.1661477E-17
   18.61200        1.1670867E-17
   18.77350        1.1670283E-17
   18.93500        1.1664482E-17
   19.09650        1.1663936E-17
   19.25800        1.1674692E-17
   19.41950        1.1692114E-17
   19.58100        1.1704415E-17
   19.74250        1.1702945E-17
   19.90400        1.1689970E-17
   20.06550        1.1676803E-17
   20.22700        1.1673876E-17
   20.38850        1.1681655E-17
   20.55000        1.1690659E-17
   20.71150        1.1690559E-17
   20.87300        1.1680095E-17
   21.03450        1.1668697E-17
   21.19600        1.1668226E-17
   21.35750        1.1682216E-17
   21.51900        1.1702407E-17
   21.68050        1.1715824E-17
   21.84200        1.1716108E-17
   22.00350        1.1708928E-17
   22.16500        1.1706550E-17
   22.32650        1.1716458E-17
   22.48800        1.1734306E-17
   22.64950        1.1747626E-17
   22.81100        1.1746996E-17
   22.97250        1.1734632E-17
   23.13400        1.1722619E-17
   23.29550        1.1722340E-17
   23.45700        1.1734560E-17
   23.61850        1.1749051E-17
   23.78000        1.1754052E-17
   23.94150        1.1746990E-17
   24.10300        1.1736811E-17
   24.26450        1.1735821E-17
   24.42600        1.1748429E-17
   24.58750        1.1766927E-17
   24.74900        1.1778153E-17
   24.91050        1.1775043E-17
   25.07200        1.1762781E-17
   25.23350        1.1754098E-17
   25.39500        1.1758011E-17
   25.55650        1.1772093E-17
   25.71800        1.1785082E-17
   25.87950        1.1787292E-17
   26.04100        1.1779366E-17
   26.20250        1.1771513E-17
   26.36400        1.1774041E-17
   26.52550        1.1787781E-17
   26.68700        1.1803037E-17
   26.84850        1.1807950E-17
   27.01000        1.1798775E-17
   27.17150        1.1782929E-17
   27.33300        1.1772281E-17
   27.49450        1.1772841E-17
   27.65600        1.1780066E-17
   27.81750        1.1783761E-17
   27.97900        1.1777926E-17
   28.14050        1.1766552E-17
   28.30200        1.1760223E-17
   28.46350        1.1766727E-17
   28.62500        1.1784183E-17
   28.78650        1.1802764E-17
   28.94800        1.1813304E-17
   29.10950        1.1814975E-17
   29.27100        1.1815245E-17
   29.43250        1.1822416E-17
   29.59400        1.1837648E-17
   29.75550        1.1853653E-17
   29.91700        1.1861085E-17
   30.07850        1.1856726E-17
   30.24000        1.1846119E-17
   30.40150        1.1838482E-17
   30.56300        1.1838670E-17
   30.72450        1.1843487E-17
   30.88600        1.1845443E-17
   31.04750        1.1840318E-17
   31.20900        1.1831492E-17
   31.37050        1.1827155E-17
   31.53200        1.1833020E-17
   31.69350        1.1847192E-17
   31.85500        1.1861762E-17
   32.01650        1.1869553E-17
   32.17800        1.1869853E-17
   32.33950        1.1868094E-17
   32.50100        1.1870038E-17
   32.66250        1.1876008E-17
   32.82400        1.1880473E-17
   32.98550        1.1877305E-17
   33.14700        1.1865782E-17
   33.30850        1.1851771E-17
   33.47000        1.1843027E-17
   33.63150        1.1842874E-17
   33.79300        1.1847970E-17
   33.95450        1.1852052E-17
   34.11600        1.1852089E-17
   34.27750        1.1851139E-17
   34.43900        1.1855325E-17
   34.60050        1.1867786E-17
   34.76200        1.1885240E-17
   34.92350        1.1900382E-17
   35.08500        1.1907989E-17
   35.24650        1.1909172E-17
   35.40800        1.1909938E-17
   35.56950        1.1915387E-17
   35.73100        1.1924891E-17
   35.89250        1.1932670E-17
   36.05400        1.1933238E-17
   36.21550        1.1926719E-17
   36.37700        1.1919091E-17
   36.53850        1.1917060E-17
   36.70000        1.1922163E-17
   36.86150        1.1929489E-17
   37.02300        1.1932228E-17
   37.18450        1.1927975E-17
   37.34600        1.1921056E-17
   37.50750        1.1918682E-17
   37.66900        1.1924388E-17
   37.83050        1.1934668E-17
   37.99200        1.1941956E-17
   38.15350        1.1941328E-17
   38.31500        1.1934919E-17
   38.47650        1.1930002E-17
   38.63800        1.1932405E-17
   38.79950        1.1941164E-17
   38.96100        1.1949284E-17
   39.12250        1.1950035E-17
   39.28400        1.1943127E-17
   39.44550        1.1935186E-17
   39.60700        1.1933961E-17
   39.76850        1.1941362E-17
   39.93000        1.1951608E-17
   40.09150        1.1956210E-17
   40.25300        1.1951462E-17
   40.41450        1.1941748E-17
   40.57600        1.1935693E-17
   40.73750        1.1938555E-17
   40.89900        1.1947652E-17
   41.06050        1.1954982E-17
   41.22200        1.1954707E-17
   41.38350        1.1948794E-17
   41.54500        1.1945651E-17
   41.70650        1.1952822E-17
   41.86800        1.1970181E-17
   42.02950        1.1989710E-17
   42.19100        1.2002131E-17
   42.35250        1.2004582E-17
   42.51400        1.2002564E-17
   42.67550        1.2004480E-17
   42.83700        1.2013685E-17
   42.99850        1.2025235E-17
   43.16000        1.2030263E-17
   43.32150        1.2024113E-17
   43.48300        1.2010908E-17
   43.64450        1.2000396E-17
   43.80600        1.1999785E-17
   43.96750        1.2007787E-17
   44.12900        1.2016121E-17
   44.29050        1.2017106E-17
   44.45200        1.2010547E-17
   44.61350        1.2003780E-17
   44.77500        1.2004904E-17
   44.93650        1.2015299E-17
   45.09800        1.2028160E-17
   45.25950        1.2034365E-17
   45.42100        1.2030385E-17
   45.58250        1.2021190E-17
   45.74400        1.2015603E-17
   45.90550        1.2018333E-17
   46.06700        1.2025860E-17
   46.22850        1.2029824E-17
   46.39000        1.2024787E-17
   46.55150        1.2013370E-17
   46.71300        1.2004155E-17
   46.87450        1.2004295E-17
   47.03600        1.2013479E-17
   47.19750        1.2024590E-17
   47.35900        1.2030306E-17
   47.52050        1.2029588E-17
   47.68200        1.2028225E-17
   47.84350        1.2033081E-17
   48.00500        1.2045410E-17
   48.16650        1.2059354E-17
   48.32800        1.2066966E-17
   48.48950        1.2065172E-17
   48.65100        1.2058361E-17
   48.81250        1.2054372E-17
   48.97400        1.2057600E-17
   49.13550        1.2065473E-17
   49.29700        1.2071349E-17
   49.45850        1.2070976E-17
   49.62000        1.2066488E-17
   49.78150        1.2064313E-17
   49.94300        1.2069015E-17
   50.10450        1.2078843E-17
   50.26600        1.2087107E-17
   50.42750        1.2088095E-17
   50.58900        1.2082090E-17
   50.75050        1.2074933E-17
   50.91200        1.2072611E-17
   51.07350        1.2075954E-17
   51.23500        1.2080287E-17
   51.39650        1.2080245E-17
   51.55800        1.2075188E-17
   51.71950        1.2070099E-17
   51.88100        1.2071110E-17
   52.04250        1.2079825E-17
   52.20400        1.2091730E-17
   52.36550        1.2100182E-17
   52.52700        1.2102289E-17
   52.68850        1.2101234E-17
   52.85000        1.2102883E-17
   53.01150        1.2109885E-17
   53.17300        1.2118784E-17
   53.33450        1.2122932E-17
   53.49600        1.2118591E-17
   53.65750        1.2108578E-17
   53.81900        1.2100025E-17
   53.98050        1.2098226E-17
   54.14200        1.2102189E-17
   54.30350        1.2105975E-17
   54.46500        1.2104600E-17
   54.62650        1.2099027E-17
   54.78800        1.2095549E-17
   54.94950        1.2099999E-17
   55.11100        1.2112060E-17
   55.27250        1.2124964E-17
   55.43400        1.2131033E-17
   55.59550        1.2128159E-17
   55.75700        1.2121377E-17
   55.91850        1.2118095E-17
   56.08000        1.2121251E-17
   56.24150        1.2126665E-17
   56.40300        1.2127035E-17
   56.56450        1.2119006E-17
   56.72600        1.2106862E-17
   56.88750        1.2099364E-17
   57.04900        1.2102399E-17
   57.21050        1.2113992E-17
   57.37200        1.2126144E-17
   57.53350        1.2131934E-17
   57.69500        1.2131532E-17
   57.85650        1.2131731E-17
   58.01800        1.2139409E-17
   58.17950        1.2154781E-17
   58.34100        1.2170566E-17
   58.50250        1.2177938E-17
   58.66400        1.2174065E-17
   58.82550        1.2164528E-17
   58.98700        1.2158487E-17
   59.14850        1.2160809E-17
   59.31000        1.2168136E-17
   59.47150        1.2172337E-17
   59.63300        1.2168216E-17
   59.79450        1.2158571E-17
   59.95600        1.2152017E-17
   60.11750        1.2155461E-17
   60.27900        1.2167862E-17
   60.44050        1.2180831E-17
   60.60200        1.2185612E-17
   60.76350        1.2180345E-17
   60.92500        1.2171292E-17
   61.08650        1.2167041E-17
   61.24800        1.2170868E-17
   61.40950        1.2178013E-17
   61.57100        1.2180225E-17
   61.73250        1.2173457E-17
   61.89400        1.2161850E-17
   62.05550        1.2154393E-17
   62.21700        1.2157231E-17
   62.37850        1.2168325E-17
   62.54000        1.2179212E-17
   62.70150        1.2182251E-17
   62.86300        1.2177001E-17
   63.02450        1.2170188E-17
   63.18600        1.2169414E-17
   63.34750        1.2176240E-17
   63.50900        1.2184797E-17
   63.67050        1.2187076E-17
   63.83200        1.2180173E-17
   63.99350        1.2169039E-17
   64.15500        1.2162348E-17
   64.31650        1.2165175E-17
   64.47800        1.2174945E-17
   64.63950        1.2184163E-17
   64.80100        1.2187357E-17
   64.96250        1.2185980E-17
   65.12400        1.2186937E-17
   65.28550        1.2196092E-17
   65.44700        1.2212614E-17
   65.60850        1.2229216E-17
   65.77000        1.2238053E-17
   65.93150        1.2237046E-17
   66.09300        1.2231093E-17
   66.25450        1.2227241E-17
   66.41600        1.2228298E-17
   66.57750        1.2230641E-17
   66.73900        1.2228096E-17
   66.90050        1.2218241E-17
   67.06200        1.2205322E-17
   67.22350        1.2197076E-17
   67.38500        1.2198282E-17
   67.54650        1.2206842E-17
   67.70800        1.2215836E-17
   67.86950        1.2219660E-17
   68.03100        1.2218629E-17
   68.19250        1.2218011E-17
   68.35400        1.2222477E-17
   68.51550        1.2231221E-17
   68.67700        1.2238295E-17
   68.83850        1.2237882E-17
   69.00000        1.2229678E-17
   69.16150        1.2219402E-17
   69.32300        1.2213928E-17
   69.48450        1.2215444E-17
   69.64600        1.2219971E-17
   69.80750        1.2221528E-17
   69.96900        1.2218081E-17
   70.13050        1.2213676E-17
   70.29200        1.2214763E-17
   70.45350        1.2224046E-17
   70.61500        1.2237594E-17
   70.77650        1.2247987E-17
   70.93800        1.2250733E-17
   71.09950        1.2248077E-17
   71.26100        1.2246684E-17
   71.42250        1.2251279E-17
   71.58400        1.2260102E-17
   71.74550        1.2266470E-17
   71.90700        1.2265069E-17
   72.06850        1.2257227E-17
   72.23000        1.2250154E-17
   72.39150        1.2250676E-17
   72.55300        1.2259077E-17
   72.71450        1.2268740E-17
   72.87600        1.2272039E-17
   73.03750        1.2267221E-17
   73.19900        1.2259952E-17
   73.36050        1.2258042E-17
   73.52200        1.2264079E-17
   73.68350        1.2272775E-17
   73.84500        1.2275584E-17
   74.00650        1.2268571E-17
   74.16800        1.2256337E-17
   74.32950        1.2248326E-17
   74.49100        1.2250639E-17
   74.65250        1.2260720E-17
   74.81400        1.2269754E-17
   74.97550        1.2270712E-17
   75.13700        1.2264772E-17
   75.29850        1.2260255E-17
   75.46000        1.2264896E-17
   75.62150        1.2278399E-17
   75.78300        1.2292089E-17
   75.94450        1.2296130E-17
   76.10600        1.2287986E-17
   76.26750        1.2274548E-17
   76.42900        1.2265972E-17
   76.59050        1.2266758E-17
   76.75200        1.2272046E-17
   76.91350        1.2272495E-17
   77.07500        1.2263344E-17
   77.23650        1.2249445E-17
   77.39800        1.2241599E-17
   77.55950        1.2247331E-17
   77.72100        1.2264265E-17
   77.88250        1.2282007E-17
   78.04400        1.2290892E-17
   78.20550        1.2289859E-17
   78.36700        1.2286517E-17
   78.52850        1.2289497E-17
   78.69000        1.2300055E-17
   78.85150        1.2310530E-17
   79.01300        1.2311066E-17
   79.17450        1.2298584E-17
   79.33600        1.2279954E-17
   79.49750        1.2266495E-17
   79.65900        1.2264631E-17
   79.82050        1.2270952E-17
   79.98200        1.2275915E-17
   80.14350        1.2272757E-17
   80.30500        1.2263643E-17
   80.46650        1.2257601E-17
   80.62800        1.2262231E-17
   80.78950        1.2276655E-17
   80.95100        1.2291990E-17
   81.11250        1.2298866E-17
   81.27400        1.2295256E-17
   81.43550        1.2287712E-17
   81.59700        1.2285069E-17
   81.75850        1.2290355E-17
   81.92000        1.2298145E-17
   82.08150        1.2299619E-17
   82.24300        1.2290695E-17
   82.40450        1.2275939E-17
   82.56600        1.2264839E-17
   82.72750        1.2263796E-17
   82.88900        1.2270989E-17
   83.05050        1.2278476E-17
   83.21200        1.2279500E-17
   83.37350        1.2274335E-17
   83.53500        1.2269570E-17
   83.69650        1.2271645E-17
   83.85800        1.2280634E-17
   84.01950        1.2289885E-17
   84.18100        1.2291815E-17
   84.34250        1.2284600E-17
   84.50400        1.2273824E-17
   84.66550        1.2267663E-17
   84.82700        1.2269985E-17
   84.98850        1.2277479E-17
   85.15000        1.2283166E-17
   85.31150        1.2282960E-17
   85.47300        1.2279260E-17
   85.63450        1.2278432E-17
   85.79600        1.2284595E-17
   85.95750        1.2295451E-17
   86.11900        1.2303987E-17
   86.28050        1.2304523E-17
   86.44200        1.2297649E-17
   86.60350        1.2289633E-17
   86.76500        1.2286893E-17
   86.92650        1.2290515E-17
   87.08800        1.2295722E-17
   87.24950        1.2296630E-17
   87.41100        1.2291887E-17
   87.57250        1.2286009E-17
   87.73400        1.2285221E-17
   87.89550        1.2291613E-17
   88.05700        1.2300990E-17
   88.21850        1.2306414E-17
   88.38000        1.2304287E-17
   88.54150        1.2297434E-17
   88.70300        1.2292415E-17
   88.86450        1.2293452E-17
   89.02600        1.2298521E-17
   89.18750        1.2301176E-17
   89.34900        1.2296503E-17
   89.51050        1.2285813E-17
   89.67200        1.2275763E-17
   89.83350        1.2272638E-17
   89.99500        1.2276924E-17
   90.15650        1.2283108E-17
   90.31800        1.2284912E-17
   90.47950        1.2281239E-17
   90.64100        1.2277364E-17
   90.80250        1.2280152E-17
   90.96400        1.2291574E-17
   91.12550        1.2306398E-17
   91.28700        1.2316302E-17
   91.44850        1.2316862E-17
   91.61000        1.2311195E-17
   91.77150        1.2306942E-17
   91.93300        1.2309269E-17
   92.09450        1.2316171E-17
   92.25600        1.2320385E-17
   92.41750        1.2316252E-17
   92.57900        1.2305338E-17
   92.74050        1.2295627E-17
   92.90200        1.2294807E-17
   93.06350        1.2303580E-17
   93.22500        1.2314992E-17
   93.38650        1.2320492E-17
   93.54800        1.2317384E-17
   93.70950        1.2310984E-17
   93.87100        1.2309534E-17
   94.03250        1.2316393E-17
   94.19400        1.2326585E-17
   94.35550        1.2330949E-17
   94.51700        1.2324271E-17
   94.67850        1.2310156E-17
   94.84000        1.2298195E-17
   95.00150        1.2295825E-17
   95.16300        1.2302087E-17
   95.32450        1.2308837E-17
   95.48600        1.2308314E-17
   95.64750        1.2300291E-17
   95.80900        1.2292344E-17
   95.97050        1.2292984E-17
   96.13200        1.2303786E-17
   96.29350        1.2317631E-17
   96.45500        1.2324743E-17
   96.61650        1.2321160E-17
   96.77800        1.2312131E-17
   96.93950        1.2307357E-17
   97.10100        1.2312348E-17
   97.26250        1.2323568E-17
   97.42400        1.2331705E-17
   97.58550        1.2330067E-17
   97.74700        1.2320577E-17
   97.90850        1.2312005E-17
   98.07000        1.2312048E-17
   98.23150        1.2320399E-17
   98.39300        1.2329029E-17
   98.55450        1.2329374E-17
   98.71600        1.2319994E-17
   98.87750        1.2307821E-17
   99.03900        1.2301936E-17
   99.20050        1.2305509E-17
   99.36200        1.2313091E-17
   99.52350        1.2315656E-17
   99.68500        1.2308779E-17
   99.84650        1.2296654E-17
   100.0080        1.2288418E-17
   100.1695        1.2290207E-17
   100.3310        1.2300075E-17
   100.4925        1.2310259E-17
   100.6540        1.2314555E-17
   100.8155        1.2314048E-17
   100.9770        1.2316039E-17
   101.1385        1.2327183E-17
   101.3000        1.2347083E-17
   101.4615        1.2368081E-17
   101.6230        1.2381388E-17
   101.7845        1.2384021E-17
   101.9460        1.2380426E-17
   102.1075        1.2377563E-17
   102.2690        1.2378077E-17
   102.4305        1.2377759E-17
   102.5920        1.2369483E-17
   102.7535        1.2349894E-17
   102.9150        1.2322715E-17
   103.0765        1.2295718E-17
   103.2380        1.2274193E-17
   103.3995        1.2256851E-17
   103.5610        1.2237825E-17
   103.7225        1.2212875E-17
   103.8840        1.2184186E-17
   104.0455        1.2159514E-17
   104.2070        1.2146607E-17
   104.3685        1.2147998E-17
   104.5300        1.2160778E-17
   104.6915        1.2181256E-17
   104.8530        1.2210020E-17
   105.0145        1.2252538E-17
   105.1760        1.2314622E-17
   105.3375        1.2396737E-17
   105.4990        1.2492153E-17
   105.6605        1.2590428E-17
   105.8220        1.2682963E-17
   105.9835        1.2765630E-17
   106.1450        1.2836303E-17
   106.3065        1.2889895E-17
   106.4680        1.2915800E-17
   106.6295        1.2900505E-17
   106.7910        1.2833508E-17
   106.9525        1.2711782E-17
   107.1140        1.2539420E-17
   107.2755        1.2323496E-17
   107.4370        1.2070493E-17
   107.5985        1.1786963E-17
   107.7600        1.1484007E-17
   107.9215        1.1181448E-17
   108.0830        1.0907562E-17
   108.2445        1.0693890E-17
   108.4060        1.0568745E-17
   108.5675        1.0553823E-17
   108.7290        1.0665253E-17
   108.8905        1.0916219E-17
   109.0520        1.1316819E-17
   109.2135        1.1869420E-17
   109.3750        1.2562020E-17
   109.5365        1.3364349E-17
   109.6980        1.4229540E-17
   109.8595        1.5099934E-17
   110.0210        1.5912745E-17
   110.1825        1.6602311E-17
   110.3440        1.7099676E-17
   110.5055        1.7333441E-17
   110.6670        1.7235493E-17
   110.8285        1.6751385E-17
   110.9900        1.5851259E-17
   111.1515        1.4536626E-17
   111.3130        1.2841466E-17
   111.4745        1.0830253E-17
   111.6360        8.5968277E-18
   111.7975        6.2656061E-18
   111.9590        3.9923508E-18
   112.1205        1.9598324E-18
   112.2820        3.6573525E-19
   112.4435       -5.9528384E-19
   112.6050       -7.5033708E-19
   112.7665        3.6437274E-20
   112.9280        1.8525330E-18
   113.0895        4.7267346E-18
   113.2510        8.6171243E-18
   113.4125        1.3398481E-17
   113.5740        1.8854055E-17
   113.7355        2.4677235E-17
   113.8970        3.0485119E-17
   114.0585        3.5841203E-17
   114.2200        4.0282187E-17
   114.3815        4.3345856E-17
   114.5430        4.4600768E-17
   114.7045        4.3680612E-17
   114.8660        4.0323811E-17
   115.0275        3.4414118E-17
   115.1890        2.6014561E-17
   115.3505        1.5387745E-17
   115.5120        3.0000298E-18
   115.6735       -1.0488663E-17
   115.8350       -2.4246601E-17
   115.9965       -3.7303566E-17
   116.1580       -4.8598952E-17
   116.3195       -5.7047550E-17
   116.4810       -6.1621561E-17
   116.6425       -6.1441335E-17
   116.8040       -5.5864331E-17
   116.9655       -4.4563178E-17
   117.1270       -2.7587934E-17
   117.2885       -5.4107170E-18
   117.4500        2.1050504E-17
   117.6115        5.0435111E-17
   117.7730        8.0978328E-17
   117.9345        1.1059028E-16
   118.0960        1.3697415E-16
   118.2575        1.5777529E-16
   118.4190        1.7074971E-16
   118.5805        1.7394171E-16
   118.7420        1.6586197E-16