  -27.90000        3.3854970E-19
  -27.73850        3.3953409E-19
  -27.57700        3.4119856E-19
  -27.41550        3.4308575E-19
  -27.25400        3.4476720E-19
  -27.09250        3.4597524E-19
  -26.93100        3.4664609E-19
  -26.76950        3.4688445E-19
  -26.60800        3.4690430E-19
  -26.44650        3.4698001E-19
  -26.28500        3.4739968E-19
  -26.12350        3.4839767E-19
  -25.96200        3.5005555E-19
  -25.80050        3.5222922E-19
  -25.63900        3.5455629E-19
  -25.47750        3.5657598E-19
  -25.31600        3.5791180E-19
  -25.15450        3.5842672E-19
  -24.99300        3.5826580E-19
  -24.83150        3.5777759E-19
  -24.67000        3.5736526E-19
  -24.50850        3.5735510E-19
  -24.34700        3.5792806E-19
  -24.18550        3.5911320E-19
  -24.02400        3.6079718E-19
  -23.86250        3.6273816E-19
  -23.70100        3.6459717E-19
  -23.53950        3.6601576E-19
  -23.37800        3.6674239E-19
  -23.21650        3.6674942E-19
  -23.05500        3.6627382E-19
  -22.89350        3.6573672E-19
  -22.73200        3.6557260E-19
  -22.57050        3.6605813E-19
  -22.40900        3.6722246E-19
  -22.24750        3.6887546E-19
  -22.08600        3.7070407E-19
  -21.92450        3.7238472E-19
  -21.76300        3.7365472E-19
  -21.60150        3.7435385E-19
  -21.44000        3.7445678E-19
  -21.27850        3.7409861E-19
  -21.11700        3.7357149E-19
  -20.95550        3.7325659E-19
  -20.79400        3.7349198E-19
  -20.63250        3.7442938E-19
  -20.47100        3.7595703E-19
  -20.30950        3.7774087E-19
  -20.14800        3.7936416E-19
  -19.98650        3.8049036E-19
  -19.82500        3.8097191E-19
  -19.66350        3.8086298E-19
  -19.50200        3.8037047E-19
  -19.34050        3.7977894E-19
  -19.17900        3.7938701E-19
  -19.01750        3.7945215E-19
  -18.85600        3.8012651E-19
  -18.69450        3.8139470E-19
  -18.53300        3.8304338E-19
  -18.37150        3.8470968E-19
  -18.21000        3.8600797E-19
  -18.04850        3.8668248E-19
  -17.88700        3.8671342E-19
  -17.72550        3.8631172E-19
  -17.56400        3.8582335E-19
  -17.40250        3.8558921E-19
  -17.24100        3.8583959E-19
  -17.07950        3.8665058E-19
  -16.91800        3.8794908E-19
  -16.75650        3.8953827E-19
  -16.59500        3.9113287E-19
  -16.43350        3.9241128E-19
  -16.27200        3.9310396E-19
  -16.11050        3.9309582E-19
  -15.94900        3.9249472E-19
  -15.78750        3.9161367E-19
  -15.62600        3.9086321E-19
  -15.46450        3.9059406E-19
  -15.30300        3.9097633E-19
  -15.14150        3.9196354E-19
  -14.98000        3.9334359E-19
  -14.81850        3.9483383E-19
  -14.65700        3.9616133E-19
  -14.49550        3.9711967E-19
  -14.33400        3.9760362E-19
  -14.17250        3.9764053E-19
  -14.01100        3.9740559E-19
  -13.84950        3.9719553E-19
  -13.68800        3.9733277E-19
  -13.52650        3.9803145E-19
  -13.36500        3.9929161E-19
  -13.20350        4.0088145E-19
  -13.04200        4.0242701E-19
  -12.88050        4.0356224E-19
  -12.71900        4.0405788E-19
  -12.55750        4.0387745E-19
  -12.39600        4.0315511E-19
  -12.23450        4.0213473E-19
  -12.07300        4.0110929E-19
  -11.91150        4.0037134E-19
  -11.75000        4.0015413E-19
  -11.58850        4.0055769E-19
  -11.42700        4.0149243E-19
  -11.26550        4.0268093E-19
  -11.10400        4.0375549E-19
  -10.94250        4.0441313E-19
  -10.78100        4.0455170E-19
  -10.61950        4.0431161E-19
  -10.45800        4.0399736E-19
  -10.29650        4.0393124E-19
  -10.13500        4.0432555E-19
  -9.973500        4.0522637E-19
  -9.812000        4.0653153E-19
  -9.650500        4.0803954E-19
  -9.489000        4.0948868E-19
  -9.327500        4.1059110E-19
  -9.166000        4.1108917E-19
  -9.004500        4.1084427E-19
  -8.843000        4.0992411E-19
  -8.681500        4.0862327E-19
  -8.520000        4.0737580E-19
  -8.358500        4.0658290E-19
  -8.197000        4.0644739E-19
  -8.035500        4.0690966E-19
  -7.874000        4.0771171E-19
  -7.712500        4.0853905E-19
  -7.551000        4.0915029E-19
  -7.389500        4.0943266E-19
  -7.228000        4.0938699E-19
  -7.066500        4.0909096E-19
  -6.905000        4.0869004E-19
  -6.743500        4.0839318E-19
  -6.582000        4.0843837E-19
  -6.420500        4.0900013E-19
  -6.259000        4.1007562E-19
  -6.097500        4.1142976E-19
  -5.936000        4.1266260E-19
  -5.774500        4.1337775E-19
  -5.613000        4.1335986E-19
  -5.451500        4.1265854E-19
  -5.290000        4.1153226E-19
  -5.128500        4.1030948E-19
  -4.967000        4.0926444E-19
  -4.805500        4.0856503E-19
  -4.644000        4.0829159E-19
  -4.482500        4.0846300E-19
  -4.321000        4.0902212E-19
  -4.159500        4.0980562E-19
  -3.998000        4.1055574E-19
  -3.836500        4.1101100E-19
  -3.675000        4.1104892E-19
  -3.513500        4.1077743E-19
  -3.352000        4.1050598E-19
  -3.190500        4.1059527E-19
  -3.029000        4.1128141E-19
  -2.867500        4.1257810E-19
  -2.706000        4.1430887E-19
  -2.544500        4.1621922E-19
  -2.383000        4.1807843E-19
  -2.221500        4.1971085E-19
  -2.060000        4.2097442E-19
  -1.898500        4.2176308E-19
  -1.737000        4.2205482E-19
  -1.575500        4.2197968E-19
  -1.414000        4.2183112E-19
  -1.252500        4.2196383E-19
  -1.091000        4.2262534E-19
 -0.9295000        4.2381842E-19
 -0.7680000        4.2529070E-19
 -0.6065000        4.2665883E-19
 -0.4450000        4.2757871E-19
 -0.2835000        4.2785783E-19
 -0.1220000        4.2746838E-19
  3.9500002E-02    4.2649298E-19
  0.2010000        4.2507801E-19
  0.3625000        4.2343373E-19
  0.5240000        4.2184006E-19
  0.6855000        4.2059702E-19
  0.8470000        4.1991278E-19
   1.008500        4.1978025E-19
   1.170000        4.1994220E-19
   1.331500        4.1999553E-19
   1.493000        4.1958346E-19
   1.654500        4.1856494E-19
   1.816000        4.1706423E-19
   1.977500        4.1539260E-19
   2.139000        4.1391412E-19
   2.300500        4.1294319E-19
   2.462000        4.1270264E-19
   2.623500        4.1331405E-19
   2.785000        4.1476506E-19
   2.946500        4.1686695E-19
   3.108000        4.1924791E-19
   3.269500        4.2144498E-19
   3.431000        4.2307561E-19
   3.592500        4.2400885E-19
   3.754000        4.2442125E-19
   3.915500        4.2469955E-19
   4.077000        4.2525231E-19
   4.238500        4.2633700E-19
   4.400000        4.2799346E-19
   4.561500        4.3007726E-19
   4.723000        4.3233225E-19
   4.884500        4.3445030E-19
   5.046000        4.3610337E-19
   5.207500        4.3700003E-19
   5.369000        4.3698711E-19
   5.530500        4.3615026E-19
   5.692000        4.3484513E-19
   5.853500        4.3358817E-19
   6.015000        4.3285844E-19
   6.176500        4.3290549E-19
   6.338000        4.3367482E-19
   6.499500        4.3488617E-19
   6.661000        4.3618381E-19
   6.822500        4.3726835E-19
   6.984000        4.3794385E-19
   7.145500        4.3811001E-19
   7.307000        4.3775117E-19
   7.468500        4.3695971E-19
   7.630000        4.3595520E-19
   7.791500        4.3503910E-19
   7.953000        4.3447465E-19
   8.114500        4.3434597E-19
   8.276000        4.3450035E-19
   8.437500        4.3462442E-19
   8.599000        4.3441856E-19
   8.760500        4.3374989E-19
   8.922000        4.3269686E-19
   9.083500        4.3147380E-19
   9.245000        4.3030962E-19
   9.406500        4.2938000E-19
   9.568000        4.2881183E-19
   9.729500        4.2871515E-19
   9.891000        4.2917253E-19
   10.05250        4.3017582E-19
   10.21400        4.3156013E-19
   10.37550        4.3302592E-19
   10.53700        4.3425933E-19
   10.69850        4.3508702E-19
   10.86000        4.3555479E-19
   11.02150        4.3587600E-19
   11.18300        4.3628876E-19
   11.34450        4.3692580E-19
   11.50600        4.3778306E-19
   11.66750        4.3878033E-19
   11.82900        4.3984016E-19
   11.99050        4.4091001E-19
   12.15200        4.4191804E-19
   12.31350        4.4273328E-19
   12.47500        4.4319448E-19
   12.63650        4.4321211E-19
   12.79800        4.4286583E-19
   12.95950        4.4240390E-19
   13.12100        4.4212690E-19
   13.28250        4.4222730E-19
   13.44400        4.4269347E-19
   13.60550        4.4334001E-19
   13.76700        4.4393419E-19
   13.92850        4.4431004E-19
   14.09000        4.4440702E-19
   14.25150        4.4422623E-19
   14.41300        4.4377940E-19
   14.57450        4.4308788E-19
   14.73600        4.4223025E-19
   14.89750        4.4137091E-19
   15.05900        4.4071092E-19
   15.22050        4.4037715E-19
   15.38200        4.4032639E-19
   15.54350        4.4035218E-19
   15.70500        4.4020541E-19
   15.86650        4.3975517E-19
   16.02800        4.3908107E-19
   16.18950        4.3843690E-19
   16.35100        4.3812634E-19
   16.51250        4.3837450E-19
   16.67400        4.3927540E-19
   16.83550        4.4080279E-19
   16.99700        4.4284303E-19
   17.15850        4.4519848E-19
   17.32000        4.4757120E-19
   17.48150        4.4959024E-19
   17.64300        4.5090525E-19
   17.80450        4.5132473E-19
   17.96600        4.5091301E-19
   18.12750        4.4997260E-19
   18.28900        4.4890901E-19
   18.45050        4.4805810E-19
   18.61200        4.4757704E-19
   18.77350        4.4743962E-19
   18.93500        4.4751474E-19
   19.09650        4.4765055E-19
   19.25800        4.4771911E-19
   19.41950        4.4763143E-19
   19.58100        4.4735416E-19
   19.74250        4.4694910E-19
   19.90400        4.4660681E-19
   20.06550        4.4661839E-19
   20.22700        4.4726798E-19
   20.38850        4.4869027E-19
   20.55000        4.5077585E-19
   20.71150        4.5318868E-19
   20.87300        4.5548333E-19
   21.03450        4.5725521E-19
   21.19600        4.5824488E-19
   21.35750        4.5836771E-19
   21.51900        4.5768999E-19
   21.68050        4.5640218E-19
   21.84200        4.5479781E-19
   22.00350        4.5324033E-19
   22.16500        4.5208424E-19
   22.32650        4.5156684E-19
   22.48800        4.5171977E-19
   22.64950        4.5236093E-19
   22.81100        4.5318796E-19
   22.97250        4.5391123E-19
   23.13400        4.5435868E-19
   23.29550        4.5449403E-19
   23.45700        4.5437512E-19
   23.61850        4.5409817E-19
   23.78000        4.5377221E-19
   23.94150        4.5352250E-19
   24.10300        4.5348249E-19
   24.26450        4.5374858E-19
   24.42600        4.5431716E-19
   24.58750        4.5504922E-19
   24.74900        4.5571293E-19
   24.91050        4.5608418E-19
   25.07200        4.5604576E-19
   25.23350        4.5562654E-19
   25.39500        4.5496748E-19
   25.55650        4.5424970E-19
   25.71800        4.5365030E-19
   25.87950        4.5333344E-19
   26.04100        4.5346124E-19
   26.20250        4.5417287E-19
   26.36400        4.5551988E-19
   26.52550        4.5740400E-19
   26.68700        4.5956351E-19
   26.84850        4.6165110E-19
   27.01000        4.6335184E-19
   27.17150        4.6448352E-19
   27.33300        4.6502109E-19
   27.49450        4.6504689E-19
   27.65600        4.6468107E-19
   27.81750        4.6404165E-19
   27.97900        4.6324503E-19
   28.14050        4.6241195E-19
   28.30200        4.6164490E-19
   28.46350        4.6098093E-19
   28.62500        4.6035781E-19
   28.78650        4.5964395E-19
   28.94800        4.5872635E-19
   29.10950        4.5761095E-19
   29.27100        4.5645899E-19
   29.43250        4.5553788E-19
   29.59400        4.5511126E-19
   29.75550        4.5533806E-19
   29.91700        4.5623715E-19
   30.07850        4.5771191E-19
   30.24000        4.5960031E-19
   30.40150        4.6170704E-19
   30.56300        4.6381371E-19
   30.72450        4.6568992E-19
   30.88600        4.6713634E-19
   31.04750        4.6804691E-19
   31.20900        4.6844774E-19
   31.37050        4.6847514E-19
   31.53200        4.6829605E-19
   31.69350        4.6801827E-19
   31.85500        4.6764920E-19
   32.01650        4.6712843E-19
   32.17800        4.6641034E-19
   32.33950        4.6552763E-19
   32.50100        4.6460336E-19
   32.66250        4.6380544E-19
   32.82400        4.6328758E-19
   32.98550        4.6314696E-19
   33.14700        4.6341620E-19
   33.30850        4.6406802E-19
   33.47000        4.6501499E-19
   33.63150        4.6610532E-19
   33.79300        4.6714007E-19
   33.95450        4.6792785E-19
   34.11600        4.6836517E-19
   34.27750        4.6849773E-19
   34.43900        4.6851308E-19
   34.60050        4.6866637E-19
   34.76200        4.6916345E-19
   34.92350        4.7006725E-19
   35.08500        4.7126589E-19
   35.24650        4.7251343E-19
   35.40800        4.7351339E-19
   35.56950        4.7400701E-19
   35.73100        4.7384204E-19
   35.89250        4.7302287E-19
   36.05400        4.7172683E-19
   36.21550        4.7028299E-19
   36.37700        4.6909531E-19
   36.53850        4.6852668E-19
   36.70000        4.6876656E-19
   36.86150        4.6974708E-19
   37.02300        4.7114259E-19
   37.18450        4.7246809E-19
   37.34600        4.7323220E-19
   37.50750        4.7309023E-19
   37.66900        4.7194873E-19
   37.83050        4.6998903E-19
   37.99200        4.6762128E-19
   38.15350        4.6538272E-19
   38.31500        4.6380286E-19
   38.47650        4.6326297E-19
   38.63800        4.6388465E-19
   38.79950        4.6548627E-19
   38.96100        4.6763022E-19
   39.12250        4.6975944E-19
   39.28400        4.7137652E-19
   39.44550        4.7220370E-19
   39.60700        4.7226259E-19
   39.76850        4.7185422E-19
   39.93000        4.7145045E-19
   40.09150        4.7153989E-19
   40.25300        4.7247414E-19
   40.41450        4.7435101E-19
   40.57600        4.7696046E-19
   40.73750        4.7981092E-19
   40.89900        4.8224247E-19
   41.06050        4.8360680E-19
   41.22200        4.8346008E-19
   41.38350        4.8170878E-19
   41.54500        4.7865375E-19
   41.70650        4.7490802E-19
   41.86800        4.7122763E-19
   42.02950        4.6831130E-19
   42.19100        4.6663605E-19
   42.35250        4.6636272E-19
   42.51400        4.6733337E-19
   42.67550        4.6913243E-19
   42.83700        4.7120912E-19
   42.99850        4.7302613E-19
   43.16000        4.7420595E-19
   43.32150        4.7463820E-19
   43.48300        4.7449887E-19
   43.64450        4.7417462E-19
   43.80600        4.7411139E-19
   43.96750        4.7465066E-19
   44.12900        4.7591304E-19
   44.29050        4.7777311E-19
   44.45200        4.7991344E-19
   44.61350        4.8192576E-19
   44.77500        4.8341810E-19
   44.93650        4.8410373E-19
   45.09800        4.8386550E-19
   45.25950        4.8278975E-19
   45.42100        4.8115711E-19
   45.58250        4.7938032E-19
   45.74400        4.7788338E-19
   45.90550        4.7697137E-19
   46.06700        4.7673138E-19
   46.22850        4.7701707E-19
   46.39000        4.7752139E-19
   46.55150        4.7789466E-19
   46.71300        4.7786090E-19
   46.87450        4.7728311E-19
   47.03600        4.7618456E-19
   47.19750        4.7472702E-19
   47.35900        4.7318407E-19
   47.52050        4.7188798E-19
   47.68200        4.7116197E-19
   47.84350        4.7122603E-19
   48.00500        4.7212316E-19
   48.16650        4.7369459E-19
   48.32800        4.7563552E-19
   48.48950        4.7760866E-19
   48.65100        4.7935520E-19
   48.81250        4.8075784E-19
   48.97400        4.8182992E-19
   49.13550        4.8265839E-19
   49.29700        4.8334076E-19
   49.45850        4.8394631E-19
   49.62000        4.8450750E-19
   49.78150        4.8501342E-19
   49.94300        4.8540902E-19
   50.10450        4.8559783E-19
   50.26600        4.8547587E-19
   50.42750        4.8498876E-19
   50.58900        4.8418909E-19
   50.75050        4.8324626E-19
   50.91200        4.8239700E-19
   51.07350        4.8185246E-19
   51.23500        4.8171147E-19
   51.39650        4.8193321E-19
   51.55800        4.8237079E-19
   51.71950        4.8284724E-19
   51.88100        4.8322190E-19
   52.04250        4.8342596E-19
   52.20400        4.8346670E-19
   52.36550        4.8341712E-19
   52.52700        4.8339820E-19
   52.68850        4.8354657E-19
   52.85000        4.8396316E-19
   53.01150        4.8464672E-19
   53.17300        4.8545591E-19
   53.33450        4.8613244E-19
   53.49600        4.8638954E-19
   53.65750        4.8603199E-19
   53.81900        4.8505209E-19
   53.98050        4.8365085E-19
   54.14200        4.8218162E-19
   54.30350        4.8104342E-19
   54.46500        4.8056893E-19
   54.62650        4.8093723E-19
   54.78800        4.8212181E-19
   54.94950        4.8388649E-19
   55.11100        4.8582613E-19
   55.27250        4.8746431E-19
   55.43400        4.8839008E-19
   55.59550        4.8838879E-19
   55.75700        4.8751730E-19
   55.91850        4.8607847E-19
   56.08000        4.8450833E-19
   56.24150        4.8322082E-19
   56.40300        4.8247625E-19
   56.56450        4.8232116E-19
   56.72600        4.8260648E-19
   56.88750        4.8306019E-19
   57.04900        4.8338703E-19
   57.21050        4.8336966E-19
   57.37200        4.8295126E-19
   57.53350        4.8227892E-19
   57.69500        4.8168014E-19
   57.85650        4.8156661E-19
   58.01800        4.8228548E-19
   58.17950        4.8397536E-19
   58.34100        4.8649356E-19
   58.50250        4.8944391E-19
   58.66400        4.9229659E-19
   58.82550        4.9454678E-19
   58.98700        4.9584913E-19
   59.14850        4.9609873E-19
   59.31000        4.9544076E-19
   59.47150        4.9422915E-19
   59.63300        4.9294040E-19
   59.79450        4.9205030E-19
   59.95600        4.9189960E-19
   60.11750        4.9258399E-19
   60.27900        4.9392045E-19
   60.44050        4.9551557E-19
   60.60200        4.9690797E-19
   60.76350        4.9773670E-19
   60.92500        4.9785545E-19
   61.08650        4.9735165E-19
   61.24800        4.9648187E-19
   61.40950        4.9556225E-19
   61.57100        4.9486070E-19
   61.73250        4.9452233E-19
   61.89400        4.9453334E-19
   62.05550        4.9471641E-19
   62.21700        4.9477224E-19
   62.37850        4.9436801E-19
   62.54000        4.9326212E-19
   62.70150        4.9141983E-19
   62.86300        4.8906821E-19
   63.02450        4.8664809E-19
   63.18600        4.8468110E-19
   63.34750        4.8360535E-19
   63.50900        4.8364568E-19
   63.67050        4.8476884E-19
   63.83200        4.8671798E-19
   63.99350        4.8909721E-19
   64.15500        4.9147174E-19
   64.31650        4.9346023E-19
   64.47800        4.9481794E-19
   64.63950        4.9549851E-19
   64.80100        4.9566828E-19
   64.96250        4.9565391E-19
   65.12400        4.9581821E-19
   65.28550        4.9640541E-19
   65.44700        4.9742630E-19
   65.60850        4.9863647E-19
   65.77000        4.9962278E-19
   65.93150        4.9994936E-19
   66.09300        4.9930902E-19
   66.25450        4.9762503E-19
   66.41600        4.9507504E-19
   66.57750        4.9206074E-19
   66.73900        4.8912617E-19
   66.90050        4.8684377E-19
   67.06200        4.8567356E-19
   67.22350        4.8582783E-19
   67.38500        4.8718658E-19
   67.54650        4.8931414E-19
   67.70800        4.9158517E-19
   67.86950        4.9338403E-19
   68.03100        4.9430266E-19
   68.19250        4.9425169E-19
   68.35400        4.9345873E-19
   68.51550        4.9236328E-19
   68.67700        4.9146771E-19
   68.83850        4.9118817E-19
   69.00000        4.9174595E-19
   69.16150        4.9310956E-19
   69.32300        4.9499692E-19
   69.48450        4.9694680E-19
   69.64600        4.9845320E-19
   69.80750        4.9913190E-19
   69.96900        4.9885831E-19
   70.13050        4.9781161E-19
   70.29200        4.9640727E-19
   70.45350        4.9514147E-19
   70.61500        4.9441469E-19
   70.77650        4.9440973E-19
   70.93800        4.9505979E-19
   71.09950        4.9609402E-19
   71.26100        4.9713560E-19
   71.42250        4.9780903E-19
   71.58400        4.9784310E-19
   71.74550        4.9714728E-19
   71.90700        4.9585073E-19
   72.06850        4.9427211E-19
   72.23000        4.9282604E-19
   72.39150        4.9188243E-19
   72.55300        4.9164178E-19
   72.71450        4.9208018E-19
   72.87600        4.9298496E-19
   73.03750        4.9405616E-19
   73.19900        4.9501988E-19
   73.36050        4.9570282E-19
   73.52200        4.9605127E-19
   73.68350        4.9611160E-19
   73.84500        4.9599652E-19
   74.00650        4.9584603E-19
   74.16800        4.9578730E-19
   74.32950        4.9589364E-19
   74.49100        4.9615880E-19
   74.65250        4.9650777E-19
   74.81400        4.9685012E-19
   74.97550        4.9715462E-19
   75.13700        4.9749423E-19
   75.29850        4.9802983E-19
   75.46000        4.9892934E-19
   75.62150        5.0026943E-19
   75.78300        5.0197755E-19
   75.94450        5.0384186E-19
   76.10600        5.0558210E-19
   76.26750        5.0693257E-19
   76.42900        5.0771017E-19
   76.59050        5.0784821E-19
   76.75200        5.0740494E-19
   76.91350        5.0655776E-19
   77.07500        5.0556710E-19
   77.23650        5.0470963E-19
   77.39800        5.0417480E-19
   77.55950        5.0397613E-19
   77.72100        5.0392153E-19
   77.88250        5.0367725E-19
   78.04400        5.0290761E-19
   78.20550        5.0142029E-19
   78.36700        4.9925117E-19
   78.52850        4.9665826E-19
   78.69000        4.9403910E-19
   78.85150        4.9182117E-19
   79.01300        4.9036771E-19
   79.17450        4.8990552E-19
   79.33600        4.9047690E-19
   79.49750        4.9190730E-19
   79.65900        4.9382295E-19
   79.82050        4.9572965E-19
   79.98200        4.9715995E-19
   80.14350        4.9782852E-19
   80.30500        4.9773122E-19
   80.46650        4.9713756E-19
   80.62800        4.9647830E-19
   80.78950        4.9619153E-19
   80.95100        4.9659121E-19
   81.11250        4.9779740E-19
   81.27400        4.9972793E-19
   81.43550        5.0212469E-19
   81.59700        5.0459925E-19
   81.75850        5.0670406E-19
   81.92000        5.0803862E-19
   82.08150        5.0837704E-19
   82.24300        5.0775986E-19
   82.40450        5.0650502E-19
   82.56600        5.0510983E-19
   82.72750        5.0407683E-19
   82.88900        5.0374844E-19
   83.05050        5.0420712E-19
   83.21200        5.0527237E-19
   83.37350        5.0657456E-19
   83.53500        5.0765336E-19
   83.69650        5.0806638E-19
   83.85800        5.0748683E-19
   84.01950        5.0579618E-19
   84.18100        5.0314982E-19
   84.34250        4.9997397E-19
   84.50400        4.9687318E-19
   84.66550        4.9445533E-19
   84.82700        4.9314264E-19
   84.98850        4.9304928E-19
   85.15000        4.9397013E-19
   85.31150        4.9548176E-19
   85.47300        4.9709776E-19
   85.63450        4.9841220E-19
   85.79600        4.9919192E-19
   85.95750        4.9941381E-19
   86.11900        4.9925308E-19
   86.28050        4.9903000E-19
   86.44200        4.9911825E-19
   86.60350        4.9981908E-19
   86.76500        5.0124110E-19
   86.92650        5.0323420E-19
   87.08800        5.0541718E-19
   87.24950        5.0730480E-19
   87.41100        5.0847351E-19
   87.57250        5.0870481E-19
   87.73400        5.0804560E-19
   87.89550        5.0677944E-19
   88.05700        5.0533534E-19
   88.21850        5.0417765E-19
   88.38000        5.0369840E-19
   88.54150        5.0413257E-19
   88.70300        5.0549612E-19
   88.86450        5.0757105E-19
   89.02600        5.0994904E-19
   89.18750        5.1214009E-19
   89.34900        5.1371535E-19
   89.51050        5.1443148E-19
   89.67200        5.1428223E-19
   89.83350        5.1346751E-19
   89.99500        5.1229198E-19
   90.15650        5.1105881E-19
   90.31800        5.0998590E-19
   90.47950        5.0916885E-19
   90.64100        5.0858424E-19
   90.80250        5.0811420E-19
   90.96400        5.0759246E-19
   91.12550        5.0686309E-19
   91.28700        5.0584974E-19
   91.44850        5.0460416E-19
   91.61000        5.0331102E-19
   91.77150        5.0223150E-19
   91.93300        5.0160615E-19
   92.09450        5.0156200E-19
   92.25600        5.0206751E-19
   92.41750        5.0295197E-19
   92.57900        5.0397137E-19
   92.74050        5.0488044E-19
   92.90200        5.0548444E-19
   93.06350        5.0566978E-19
   93.22500        5.0541604E-19
   93.38650        5.0480336E-19
   93.54800        5.0400952E-19
   93.70950        5.0327757E-19
   93.87100        5.0284785E-19
   94.03250        5.0288585E-19
   94.19400        5.0343106E-19
   94.35550        5.0440145E-19
   94.51700        5.0564687E-19
   94.67850        5.0701177E-19
   94.84000        5.0837848E-19
   95.00150        5.0966744E-19
   95.16300        5.1081722E-19
   95.32450        5.1177323E-19
   95.48600        5.1249583E-19
   95.64750        5.1298159E-19
   95.80900        5.1326521E-19
   95.97050        5.1339084E-19
   96.13200        5.1337512E-19
   96.29350        5.1318492E-19
   96.45500        5.1276466E-19
   96.61650        5.1208813E-19
   96.77800        5.1119907E-19
   96.93950        5.1020841E-19
   97.10100        5.0924883E-19
   97.26250        5.0842439E-19
   97.42400        5.0779222E-19
   97.58550        5.0738566E-19
   97.74700        5.0724768E-19
   97.90850        5.0743255E-19
   98.07000        5.0796505E-19
   98.23150        5.0878727E-19
   98.39300        5.0973149E-19
   98.55450        5.1055562E-19
   98.71600        5.1101512E-19
   98.87750        5.1092827E-19
   99.03900        5.1020314E-19
   99.20050        5.0882268E-19
   99.36200        5.0682979E-19
   99.52350        5.0433993E-19
   99.68500        5.0157596E-19
   99.84650        4.9888457E-19
   100.0080        4.9670278E-19
   100.1695        4.9547292E-19
   100.3310        4.9554964E-19
   100.4925        4.9715550E-19
   100.6540        5.0039340E-19
   100.8155        5.0529150E-19
   100.9770        5.1181992E-19
   101.1385        5.1985851E-19
   101.3000        5.2913255E-19
   101.4615        5.3916656E-19
   101.6230        5.4929508E-19
   101.7845        5.5872344E-19
   101.9460        5.6659023E-19
   102.1075        5.7200909E-19
   102.2690        5.7408682E-19
   102.4305        5.7195926E-19
   102.5920        5.6488092E-19
   102.7535        5.5236247E-19
   102.9150        5.3431080E-19
   103.0765        5.1111376E-19
   103.2380        4.8364899E-19
   103.3995        4.5324136E-19
   103.5610        4.2160352E-19
   103.7225        3.9078460E-19
   103.8840        3.6310326E-19
   104.0455        3.4102961E-19
   104.2070        3.2701213E-19
   104.3685        3.2326110E-19
   104.5300        3.3155568E-19
   104.6915        3.5310257E-19
   104.8530        3.8844518E-19
   105.0145        4.3739486E-19
   105.1760        4.9894387E-19
   105.3375        5.7117261E-19
   105.4990        6.5118749E-19
   105.6605        7.3512849E-19
   105.8220        8.1826345E-19
   105.9835        8.9515335E-19
   106.1450        9.5986235E-19
   106.3065        1.0062154E-18
   106.4680        1.0281121E-18
   106.6295        1.0199313E-18
   106.7910        9.7701993E-19
   106.9525        8.9621804E-19
   107.1140        7.7636474E-19
   107.2755        6.1871885E-19
   107.4370        4.2726875E-19
   107.5985        2.0891062E-19
   107.7600       -2.6515242E-20
   107.9215       -2.6637147E-19
   108.0830       -4.9558546E-19
   108.2445       -6.9725111E-19
   108.4060       -8.5344737E-19
   108.5675       -9.4623517E-19
   108.7290       -9.5878153E-19
   108.8905       -8.7657301E-19
   109.0520       -6.8870546E-19
   109.2135       -3.8920727E-19
   109.3750        2.1667935E-20
   109.5365        5.3628678E-19
   109.6980        1.1387460E-18
   109.8595        1.8043857E-18
   110.0210        2.4998099E-18
   110.1825        3.1835247E-18
   110.3440        3.8072717E-18
   110.5055        4.3181156E-18
   110.6670        4.6613092E-18
   110.8285        4.7838407E-18
   110.9900        4.6385203E-18
   111.1515        4.1883612E-18
   111.3130        3.4109707E-18
   111.4745        2.3026597E-18
   111.6360        8.8194276E-19
   111.7975       -8.0787732E-19
   111.9590       -2.6973888E-18
   112.1205       -4.6913234E-18
   112.2820       -6.6706549E-18
   112.4435       -8.4967207E-18
   112.6050       -1.0017431E-17
   112.7665       -1.1075512E-17
   112.9280       -1.1518584E-17
   113.0895       -1.1210732E-17
   113.2510       -1.0045017E-17
   113.4125       -7.9562020E-18
   113.5740       -4.9327650E-18
   113.7355       -1.0271194E-18
   113.8970        3.6370569E-18
   114.0585        8.8614287E-18
   114.2200        1.4374497E-17
   114.3815        1.9838668E-17
   114.5430        2.4863342E-17
   114.7045        2.9024047E-17
   114.8660        3.1887267E-17
   115.0275        3.3040002E-17
   115.1890        3.2122785E-17
   115.3505        2.8864094E-17
   115.5120        2.3114154E-17
   115.6735        1.4875356E-17
   115.8350        4.3267535E-18
   115.9965       -8.1601740E-18
   116.1580       -2.2017098E-17
   116.3195       -3.6487946E-17
   116.4810       -5.0653100E-17
   116.6425       -6.3469390E-17
   116.8040       -7.3825459E-17
   116.9655       -8.0610822E-17
   117.1270       -8.2795863E-17
   117.2885       -7.9518460E-17
   117.4500       -7.0172021E-17
   117.6115       -5.4488594E-17
   117.7730       -3.2610067E-17
   117.9345       -5.1404800E-18
   118.0960        2.6827477E-17
   118.2575        6.1717434E-17
   118.4190        9.7510301E-17
   118.5805        1.3182341E-16
   118.7420        1.6202771E-16