  -27.90000        3.4119366E-18
  -27.73850        3.4143824E-18
  -27.57700        3.4188649E-18
  -27.41550        3.4246992E-18
  -27.25400        3.4310447E-18
  -27.09250        3.4370579E-18
  -26.93100        3.4420334E-18
  -26.76950        3.4455220E-18
  -26.60800        3.4473937E-18
  -26.44650        3.4478474E-18
  -26.28500        3.4473641E-18
  -26.12350        3.4466124E-18
  -25.96200        3.4463270E-18
  -25.80050        3.4471728E-18
  -25.63900        3.4496232E-18
  -25.47750        3.4538666E-18
  -25.31600        3.4597623E-18
  -25.15450        3.4668581E-18
  -24.99300        3.4744613E-18
  -24.83150        3.4817637E-18
  -24.67000        3.4879878E-18
  -24.50850        3.4925315E-18
  -24.34700        3.4950809E-18
  -24.18550        3.4956665E-18
  -24.02400        3.4946582E-18
  -23.86250        3.4926911E-18
  -23.70100        3.4905508E-18
  -23.53950        3.4890321E-18
  -23.37800        3.4888017E-18
  -23.21650        3.4902869E-18
  -23.05500        3.4936077E-18
  -22.89350        3.4985629E-18
  -22.73200        3.5046646E-18
  -22.57050        3.5112254E-18
  -22.40900        3.5174764E-18
  -22.24750        3.5227046E-18
  -22.08600        3.5263764E-18
  -21.92450        3.5282429E-18
  -21.76300        3.5283823E-18
  -21.60150        3.5271908E-18
  -21.44000        3.5253098E-18
  -21.27850        3.5235036E-18
  -21.11700        3.5225168E-18
  -20.95550        3.5229341E-18
  -20.79400        3.5250724E-18
  -20.63250        3.5289299E-18
  -20.47100        3.5341912E-18
  -20.30950        3.5402921E-18
  -20.14800        3.5465220E-18
  -19.98650        3.5521534E-18
  -19.82500        3.5565681E-18
  -19.66350        3.5593598E-18
  -19.50200        3.5604037E-18
  -19.34050        3.5598822E-18
  -19.17900        3.5582510E-18
  -19.01750        3.5561673E-18
  -18.85600        3.5543728E-18
  -18.69450        3.5535588E-18
  -18.53300        3.5542408E-18
  -18.37150        3.5566574E-18
  -18.21000        3.5607247E-18
  -18.04850        3.5660463E-18
  -17.88700        3.5719921E-18
  -17.72550        3.5778155E-18
  -17.56400        3.5827943E-18
  -17.40250        3.5863644E-18
  -17.24100        3.5882185E-18
  -17.07950        3.5883562E-18
  -16.91800        3.5870762E-18
  -16.75650        3.5849193E-18
  -16.59500        3.5825709E-18
  -16.43350        3.5807424E-18
  -16.27200        3.5800497E-18
  -16.11050        3.5809058E-18
  -15.94900        3.5834486E-18
  -15.78750        3.5875129E-18
  -15.62600        3.5926530E-18
  -15.46450        3.5982204E-18
  -15.30300        3.6034759E-18
  -15.14150        3.6077313E-18
  -14.98000        3.6104800E-18
  -14.81850        3.6114937E-18
  -14.65700        3.6108721E-18
  -14.49550        3.6090246E-18
  -14.33400        3.6065943E-18
  -14.17250        3.6043378E-18
  -14.01100        3.6029870E-18
  -13.84950        3.6031193E-18
  -13.68800        3.6050595E-18
  -13.52650        3.6088248E-18
  -13.36500        3.6141287E-18
  -13.20350        3.6204273E-18
  -13.04200        3.6270120E-18
  -12.88050        3.6331241E-18
  -12.71900        3.6380797E-18
  -12.55750        3.6413843E-18
  -12.39600        3.6428170E-18
  -12.23450        3.6424687E-18
  -12.07300        3.6407259E-18
  -11.91150        3.6381963E-18
  -11.75000        3.6355990E-18
  -11.58850        3.6336270E-18
  -11.42700        3.6328143E-18
  -11.26550        3.6334401E-18
  -11.10400        3.6354857E-18
  -10.94250        3.6386472E-18
  -10.78100        3.6424067E-18
  -10.61950        3.6461381E-18
  -10.45800        3.6492334E-18
  -10.29650        3.6512158E-18
  -10.13500        3.6518332E-18
  -9.973500        3.6511070E-18
  -9.812000        3.6493343E-18
  -9.650500        3.6470447E-18
  -9.489000        3.6449147E-18
  -9.327500        3.6436504E-18
  -9.166000        3.6438609E-18
  -9.004500        3.6459371E-18
  -8.843000        3.6499667E-18
  -8.681500        3.6556941E-18
  -8.520000        3.6625485E-18
  -8.358500        3.6697314E-18
  -8.197000        3.6763467E-18
  -8.035500        3.6815572E-18
  -7.874000        3.6847253E-18
  -7.712500        3.6855235E-18
  -7.551000        3.6839808E-18
  -7.389500        3.6804698E-18
  -7.228000        3.6756407E-18
  -7.066500        3.6703063E-18
  -6.905000        3.6653142E-18
  -6.743500        3.6614149E-18
  -6.582000        3.6591517E-18
  -6.420500        3.6587840E-18
  -6.259000        3.6602593E-18
  -6.097500        3.6632322E-18
  -5.936000        3.6671394E-18
  -5.774500        3.6713092E-18
  -5.613000        3.6750994E-18
  -5.451500        3.6780230E-18
  -5.290000        3.6798540E-18
  -5.128500        3.6806725E-18
  -4.967000        3.6808470E-18
  -4.805500        3.6809566E-18
  -4.644000        3.6816618E-18
  -4.482500        3.6835602E-18
  -4.321000        3.6870571E-18
  -4.159500        3.6922704E-18
  -3.998000        3.6989937E-18
  -3.836500        3.7067154E-18
  -3.675000        3.7146948E-18
  -3.513500        3.7220704E-18
  -3.352000        3.7279909E-18
  -3.190500        3.7317463E-18
  -3.029000        3.7328763E-18
  -2.867500        3.7312500E-18
  -2.706000        3.7270926E-18
  -2.544500        3.7209587E-18
  -2.383000        3.7136464E-18
  -2.221500        3.7060707E-18
  -2.060000        3.6991087E-18
  -1.898500        3.6934524E-18
  -1.737000        3.6894989E-18
  -1.575500        3.6872941E-18
  -1.414000        3.6865500E-18
  -1.252500        3.6867237E-18
  -1.091000        3.6871415E-18
 -0.9295000        3.6871435E-18
 -0.7680000        3.6862138E-18
 -0.6065000        3.6840792E-18
 -0.4450000        3.6807556E-18
 -0.2835000        3.6765440E-18
 -0.1220000        3.6719743E-18
  3.9500002E-02    3.6677130E-18
  0.2010000        3.6644457E-18
  0.3625000        3.6627479E-18
  0.5240000        3.6629770E-18
  0.6855000        3.6651885E-18
  0.8470000        3.6691068E-18
   1.008500        3.6741584E-18
   1.170000        3.6795603E-18
   1.331500        3.6844581E-18
   1.493000        3.6880815E-18
   1.654500        3.6898935E-18
   1.816000        3.6896892E-18
   1.977500        3.6876398E-18
   2.139000        3.6842604E-18
   2.300500        3.6803201E-18
   2.462000        3.6767082E-18
   2.623500        3.6742875E-18
   2.785000        3.6737560E-18
   2.946500        3.6755378E-18
   3.108000        3.6797221E-18
   3.269500        3.6860504E-18
   3.431000        3.6939541E-18
   3.592500        3.7026424E-18
   3.754000        3.7112244E-18
   3.915500        3.7188502E-18
   4.077000        3.7248489E-18
   4.238500        3.7288342E-18
   4.400000        3.7307612E-18
   4.561500        3.7309125E-18
   4.723000        3.7298236E-18
   4.884500        3.7281609E-18
   5.046000        3.7265752E-18
   5.207500        3.7255727E-18
   5.369000        3.7254230E-18
   5.530500        3.7261223E-18
   5.692000        3.7274177E-18
   5.853500        3.7288723E-18
   6.015000        3.7299679E-18
   6.176500        3.7302098E-18
   6.338000        3.7292284E-18
   6.499500        3.7268523E-18
   6.661000        3.7231569E-18
   6.822500        3.7184672E-18
   6.984000        3.7133188E-18
   7.145500        3.7083818E-18
   7.307000        3.7043472E-18
   7.468500        3.7017991E-18
   7.630000        3.7010964E-18
   7.791500        3.7022896E-18
   7.953000        3.7050983E-18
   8.114500        3.7089497E-18
   8.276000        3.7130810E-18
   8.437500        3.7166838E-18
   8.599000        3.7190499E-18
   8.760500        3.7196985E-18
   8.922000        3.7184527E-18
   9.083500        3.7154616E-18
   9.245000        3.7111624E-18
   9.406500        3.7062001E-18
   9.568000        3.7013202E-18
   9.729500        3.6972513E-18
   9.891000        3.6945956E-18
   10.05250        3.6937370E-18
   10.21400        3.6947813E-18
   10.37550        3.6975408E-18
   10.53700        3.7015629E-18
   10.69850        3.7062109E-18
   10.86000        3.7107819E-18
   11.02150        3.7146398E-18
   11.18300        3.7173393E-18
   11.34450        3.7187104E-18
   11.50600        3.7188816E-18
   11.66750        3.7182439E-18
   11.82900        3.7173522E-18
   11.99050        3.7168017E-18
   12.15200        3.7170986E-18
   12.31350        3.7185565E-18
   12.47500        3.7212341E-18
   12.63650        3.7249246E-18
   12.79800        3.7291937E-18
   12.95950        3.7334516E-18
   13.12100        3.7370502E-18
   13.28250        3.7393932E-18
   13.44400        3.7400421E-18
   13.60550        3.7388014E-18
   13.76700        3.7357722E-18
   13.92850        3.7313538E-18
   14.09000        3.7261964E-18
   14.25150        3.7210931E-18
   14.41300        3.7168488E-18
   14.57450        3.7141282E-18
   14.73600        3.7133374E-18
   14.89750        3.7145497E-18
   15.05900        3.7174990E-18
   15.22050        3.7216398E-18
   15.38200        3.7262555E-18
   15.54350        3.7305912E-18
   15.70500        3.7339876E-18
   15.86650        3.7359881E-18
   16.02800        3.7364071E-18
   16.18950        3.7353528E-18
   16.35100        3.7332080E-18
   16.51250        3.7305606E-18
   16.67400        3.7281092E-18
   16.83550        3.7265409E-18
   16.99700        3.7264036E-18
   17.15850        3.7279951E-18
   17.32000        3.7312897E-18
   17.48150        3.7359286E-18
   17.64300        3.7412697E-18
   17.80450        3.7465078E-18
   17.96600        3.7508273E-18
   18.12750        3.7535628E-18
   18.28900        3.7543246E-18
   18.45050        3.7530760E-18
   18.61200        3.7501304E-18
   18.77350        3.7460913E-18
   18.93500        3.7417399E-18
   19.09650        3.7378989E-18
   19.25800        3.7353016E-18
   19.41950        3.7344752E-18
   19.58100        3.7356630E-18
   19.74250        3.7387819E-18
   19.90400        3.7434294E-18
   20.06550        3.7489414E-18
   20.22700        3.7544901E-18
   20.38850        3.7592224E-18
   20.55000        3.7624099E-18
   20.71150        3.7635866E-18
   20.87300        3.7626386E-18
   21.03450        3.7598333E-18
   21.19600        3.7557631E-18
   21.35750        3.7512277E-18
   21.51900        3.7470752E-18
   21.68050        3.7440362E-18
   21.84200        3.7425915E-18
   22.00350        3.7428976E-18
   22.16500        3.7447777E-18
   22.32650        3.7477713E-18
   22.48800        3.7512289E-18
   22.64950        3.7544318E-18
   22.81100        3.7567127E-18
   22.97250        3.7575680E-18
   23.13400        3.7567421E-18
   23.29550        3.7542800E-18
   23.45700        3.7505324E-18
   23.61850        3.7461145E-18
   23.78000        3.7418073E-18
   23.94150        3.7384258E-18
   24.10300        3.7366681E-18
   24.26450        3.7369820E-18
   24.42600        3.7394739E-18
   24.58750        3.7438910E-18
   24.74900        3.7496722E-18
   24.91050        3.7560597E-18
   25.07200        3.7622495E-18
   25.23350        3.7675318E-18
   25.39500        3.7714130E-18
   25.55650        3.7736782E-18
   25.71800        3.7744074E-18
   25.87950        3.7739367E-18
   26.04100        3.7727877E-18
   26.20250        3.7715693E-18
   26.36400        3.7708732E-18
   26.52550        3.7711665E-18
   26.68700        3.7727075E-18
   26.84850        3.7754876E-18
   27.01000        3.7792236E-18
   27.17150        3.7833996E-18
   27.33300        3.7873606E-18
   27.49450        3.7904439E-18
   27.65600        3.7921136E-18
   27.81750        3.7920755E-18
   27.97900        3.7903335E-18
   28.14050        3.7871881E-18
   28.30200        3.7831664E-18
   28.46350        3.7789109E-18
   28.62500        3.7750542E-18
   28.78650        3.7721020E-18
   28.94800        3.7703529E-18
   29.10950        3.7698583E-18
   29.27100        3.7704257E-18
   29.43250        3.7716636E-18
   29.59400        3.7730471E-18
   29.75550        3.7740120E-18
   29.91700        3.7740575E-18
   30.07850        3.7728485E-18
   30.24000        3.7702954E-18
   30.40150        3.7665938E-18
   30.56300        3.7622172E-18
   30.72450        3.7578373E-18
   30.88600        3.7542026E-18
   31.04750        3.7519874E-18
   31.20900        3.7516545E-18
   31.37050        3.7533560E-18
   31.53200        3.7569075E-18
   31.69350        3.7618272E-18
   31.85500        3.7674363E-18
   32.01650        3.7729879E-18
   32.17800        3.7777992E-18
   32.33950        3.7813610E-18
   32.50100        3.7834100E-18
   32.66250        3.7839588E-18
   32.82400        3.7832867E-18
   32.98550        3.7818946E-18
   33.14700        3.7804301E-18
   33.30850        3.7795822E-18
   33.47000        3.7799581E-18
   33.63150        3.7819678E-18
   33.79300        3.7857236E-18
   33.95450        3.7909989E-18
   34.11600        3.7972512E-18
   34.27750        3.8037135E-18
   34.43900        3.8095439E-18
   34.60050        3.8139888E-18
   34.76200        3.8165344E-18
   34.92350        3.8169968E-18
   35.08500        3.8155451E-18
   35.24650        3.8126504E-18
   35.40800        3.8089794E-18
   35.56950        3.8052682E-18
   35.73100        3.8021923E-18
   35.89250        3.8002621E-18
   36.05400        3.7997484E-18
   36.21550        3.8006476E-18
   36.37700        3.8026829E-18
   36.53850        3.8053493E-18
   36.70000        3.8079917E-18
   36.86150        3.8099219E-18
   37.02300        3.8105506E-18
   37.18450        3.8095162E-18
   37.34600        3.8067807E-18
   37.50750        3.8026605E-18
   37.66900        3.7977839E-18
   37.83050        3.7929792E-18
   37.99200        3.7891105E-18
   38.15350        3.7869069E-18
   38.31500        3.7868192E-18
   38.47650        3.7889360E-18
   38.63800        3.7929672E-18
   38.79950        3.7983050E-18
   38.96100        3.8041246E-18
   39.12250        3.8095195E-18
   39.28400        3.8136393E-18
   39.44550        3.8158189E-18
   39.60700        3.8156779E-18
   39.76850        3.8131885E-18
   39.93000        3.8086907E-18
   40.09150        3.8028566E-18
   40.25300        3.7965919E-18
   40.41450        3.7908918E-18
   40.57600        3.7866720E-18
   40.73750        3.7846011E-18
   40.89900        3.7849870E-18
   41.06050        3.7877245E-18
   41.22200        3.7923328E-18
   41.38350        3.7980602E-18
   41.54500        3.8040332E-18
   41.70650        3.8094219E-18
   41.86800        3.8135727E-18
   42.02950        3.8161014E-18
   42.19100        3.8169319E-18
   42.35250        3.8162825E-18
   42.51400        3.8146092E-18
   42.67550        3.8125234E-18
   42.83700        3.8106854E-18
   42.99850        3.8096899E-18
   43.16000        3.8099567E-18
   43.32150        3.8116458E-18
   43.48300        3.8146162E-18
   43.64450        3.8184419E-18
   43.80600        3.8224938E-18
   43.96750        3.8260693E-18
   44.12900        3.8285480E-18
   44.29050        3.8295261E-18
   44.45200        3.8289057E-18
   44.61350        3.8269093E-18
   44.77500        3.8240229E-18
   44.93650        3.8208866E-18
   45.09800        3.8181631E-18
   45.25950        3.8164116E-18
   45.42100        3.8159955E-18
   45.58250        3.8170344E-18
   45.74400        3.8193923E-18
   45.90550        3.8227085E-18
   46.06700        3.8264478E-18
   46.22850        3.8299823E-18
   46.39000        3.8326847E-18
   46.55150        3.8340363E-18
   46.71300        3.8337307E-18
   46.87450        3.8317467E-18
   47.03600        3.8283767E-18
   47.19750        3.8241891E-18
   47.35900        3.8199267E-18
   47.52050        3.8163603E-18
   47.68200        3.8141339E-18
   47.84350        3.8136364E-18
   48.00500        3.8149347E-18
   48.16650        3.8177789E-18
   48.32800        3.8216762E-18
   48.48950        3.8260011E-18
   48.65100        3.8301204E-18
   48.81250        3.8335003E-18
   48.97400        3.8357800E-18
   49.13550        3.8368132E-18
   49.29700        3.8366713E-18
   49.45850        3.8356216E-18
   49.62000        3.8340822E-18
   49.78150        3.8325511E-18
   49.94300        3.8315192E-18
   50.10450        3.8313736E-18
   50.26600        3.8323042E-18
   50.42750        3.8342481E-18
   50.58900        3.8368810E-18
   50.75050        3.8396769E-18
   50.91200        3.8420178E-18
   51.07350        3.8433359E-18
   51.23500        3.8432449E-18
   51.39650        3.8416365E-18
   51.55800        3.8387062E-18
   51.71950        3.8349148E-18
   51.88100        3.8308963E-18
   52.04250        3.8273370E-18
   52.20400        3.8248525E-18
   52.36550        3.8238926E-18
   52.52700        3.8246718E-18
   52.68850        3.8271393E-18
   52.85000        3.8309844E-18
   53.01150        3.8356746E-18
   53.17300        3.8405289E-18
   53.33450        3.8448199E-18
   53.49600        3.8478986E-18
   53.65750        3.8493127E-18
   53.81900        3.8489078E-18
   53.98050        3.8468671E-18
   54.14200        3.8436874E-18
   54.30350        3.8400805E-18
   54.46500        3.8368314E-18
   54.62650        3.8346393E-18
   54.78800        3.8339821E-18
   54.94950        3.8350306E-18
   55.11100        3.8376387E-18
   55.27250        3.8413846E-18
   55.43400        3.8456628E-18
   55.59550        3.8497966E-18
   55.75700        3.8531492E-18
   55.91850        3.8552262E-18
   56.08000        3.8557523E-18
   56.24150        3.8547233E-18
   56.40300        3.8524216E-18
   56.56450        3.8493859E-18
   56.72600        3.8463344E-18
   56.88750        3.8440390E-18
   57.04900        3.8431791E-18
   57.21050        3.8441937E-18
   57.37200        3.8471753E-18
   57.53350        3.8518381E-18
   57.69500        3.8575634E-18
   57.85650        3.8635166E-18
   58.01800        3.8688106E-18
   58.17950        3.8726710E-18
   58.34100        3.8745628E-18
   58.50250        3.8742654E-18
   58.66400        3.8718827E-18
   58.82550        3.8678047E-18
   58.98700        3.8626295E-18
   59.14850        3.8570729E-18
   59.31000        3.8518679E-18
   59.47150        3.8476641E-18
   59.63300        3.8449328E-18
   59.79450        3.8438876E-18
   59.95600        3.8444406E-18
   60.11750        3.8462079E-18
   60.27900        3.8485790E-18
   60.44050        3.8508409E-18
   60.60200        3.8523340E-18
   60.76350        3.8526057E-18
   60.92500        3.8515151E-18
   61.08650        3.8492660E-18
   61.24800        3.8463580E-18
   61.40950        3.8434695E-18
   61.57100        3.8413105E-18
   61.73250        3.8404817E-18
   61.89400        3.8413693E-18
   62.05550        3.8440903E-18
   62.21700        3.8484888E-18
   62.37850        3.8541695E-18
   62.54000        3.8605553E-18
   62.70150        3.8669627E-18
   62.86300        3.8726880E-18
   63.02450        3.8771027E-18
   63.18600        3.8797542E-18
   63.34750        3.8804511E-18
   63.50900        3.8793104E-18
   63.67050        3.8767515E-18
   63.83200        3.8734242E-18
   63.99350        3.8700832E-18
   64.15500        3.8674358E-18
   64.31650        3.8660002E-18
   64.47800        3.8660155E-18
   64.63950        3.8674151E-18
   64.80100        3.8698756E-18
   64.96250        3.8729101E-18
   65.12400        3.8759798E-18
   65.28550        3.8786003E-18
   65.44700        3.8804151E-18
   65.60850        3.8812365E-18
   65.77000        3.8810557E-18
   65.93150        3.8800317E-18
   66.09300        3.8784601E-18
   66.25450        3.8767255E-18
   66.41600        3.8752340E-18
   66.57750        3.8743328E-18
   66.73900        3.8742257E-18
   66.90050        3.8749123E-18
   67.06200        3.8761655E-18
   67.22350        3.8775696E-18
   67.38500        3.8786106E-18
   67.54650        3.8787980E-18
   67.70800        3.8777909E-18
   67.86950        3.8754872E-18
   68.03100        3.8720560E-18
   68.19250        3.8679073E-18
   68.35400        3.8636122E-18
   68.51550        3.8597989E-18
   68.67700        3.8570497E-18
   68.83850        3.8558197E-18
   69.00000        3.8563781E-18
   69.16150        3.8587785E-18
   69.32300        3.8628507E-18
   69.48450        3.8682109E-18
   69.64600        3.8743026E-18
   69.80750        3.8804627E-18
   69.96900        3.8860238E-18
   70.13050        3.8904256E-18
   70.29200        3.8933191E-18
   70.45350        3.8946302E-18
   70.61500        3.8945665E-18
   70.77650        3.8935503E-18
   70.93800        3.8921061E-18
   71.09950        3.8907255E-18
   71.26100        3.8897560E-18
   71.42250        3.8893346E-18
   71.58400        3.8893855E-18
   71.74550        3.8896696E-18
   71.90700        3.8898603E-18
   72.06850        3.8896278E-18
   72.23000        3.8887059E-18
   72.39150        3.8869395E-18
   72.55300        3.8843136E-18
   72.71450        3.8809718E-18
   72.87600        3.8772209E-18
   73.03750        3.8735197E-18
   73.19900        3.8704331E-18
   73.36050        3.8685517E-18
   73.52200        3.8683813E-18
   73.68350        3.8702242E-18
   73.84500        3.8740834E-18
   74.00650        3.8796280E-18
   74.16800        3.8862318E-18
   74.32950        3.8930854E-18
   74.49100        3.8993476E-18
   74.65250        3.9043049E-18
   74.81400        3.9074858E-18
   74.97550        3.9087225E-18
   75.13700        3.9081393E-18
   75.29850        3.9060941E-18
   75.46000        3.9030943E-18
   75.62150        3.8997083E-18
   75.78300        3.8964864E-18
   75.94450        3.8938936E-18
   76.10600        3.8922492E-18
   76.26750        3.8916788E-18
   76.42900        3.8920850E-18
   76.59050        3.8931487E-18
   76.75200        3.8943820E-18
   76.91350        3.8952245E-18
   77.07500        3.8951757E-18
   77.23650        3.8939263E-18
   77.39800        3.8914534E-18
   77.55950        3.8880496E-18
   77.72100        3.8842710E-18
   77.88250        3.8808237E-18
   78.04400        3.8784150E-18
   78.20550        3.8776114E-18
   78.36700        3.8787405E-18
   78.52850        3.8818407E-18
   78.69000        3.8866740E-18
   78.85150        3.8927732E-18
   79.01300        3.8995106E-18
   79.17450        3.9061805E-18
   79.33600        3.9120849E-18
   79.49750        3.9166212E-18
   79.65900        3.9193666E-18
   79.82050        3.9201520E-18
   79.98200        3.9191011E-18
   80.14350        3.9166204E-18
   80.30500        3.9133278E-18
   80.46650        3.9099330E-18
   80.62800        3.9070950E-18
   80.78950        3.9052876E-18
   80.95100        3.9047189E-18
   81.11250        3.9053145E-18
   81.27400        3.9067645E-18
   81.43550        3.9086211E-18
   81.59700        3.9104054E-18
   81.75850        3.9117036E-18
   81.92000        3.9122280E-18
   82.08150        3.9118509E-18
   82.24300        3.9106043E-18
   82.40450        3.9086708E-18
   82.56600        3.9063584E-18
   82.72750        3.9040605E-18
   82.88900        3.9021981E-18
   83.05050        3.9011447E-18
   83.21200        3.9011413E-18
   83.37350        3.9022295E-18
   83.53500        3.9042226E-18
   83.69650        3.9067323E-18
   83.85800        3.9092556E-18
   84.01950        3.9112933E-18
   84.18100        3.9124733E-18
   84.34250        3.9126358E-18
   84.50400        3.9118641E-18
   84.66550        3.9104451E-18
   84.82700        3.9087915E-18
   84.98850        3.9073448E-18
   85.15000        3.9064911E-18
   85.31150        3.9065060E-18
   85.47300        3.9075338E-18
   85.63450        3.9095815E-18
   85.79600        3.9125262E-18
   85.95750        3.9161245E-18
   86.11900        3.9200267E-18
   86.28050        3.9238135E-18
   86.44200        3.9270544E-18
   86.60350        3.9293900E-18
   86.76500        3.9306130E-18
   86.92650        3.9307271E-18
   87.08800        3.9299537E-18
   87.24950        3.9286778E-18
   87.41100        3.9273435E-18
   87.57250        3.9263335E-18
   87.73400        3.9258695E-18
   87.89550        3.9259609E-18
   88.05700        3.9264229E-18
   88.21850        3.9269424E-18
   88.38000        3.9271731E-18
   88.54150        3.9268216E-18
   88.70300        3.9257036E-18
   88.86450        3.9237639E-18
   89.02600        3.9210723E-18
   89.18750        3.9178049E-18
   89.34900        3.9142265E-18
   89.51050        3.9106750E-18
   89.67200        3.9075359E-18
   89.83350        3.9051991E-18
   89.99500        3.9039951E-18
   90.15650        3.9041184E-18
   90.31800        3.9055676E-18
   90.47950        3.9081215E-18
   90.64100        3.9113748E-18
   90.80250        3.9148254E-18
   90.96400        3.9179918E-18
   91.12550        3.9205296E-18
   91.28700        3.9223035E-18
   91.44850        3.9234024E-18
   91.61000        3.9240952E-18
   91.77150        3.9247445E-18
   91.93300        3.9257173E-18
   92.09450        3.9273042E-18
   92.25600        3.9296729E-18
   92.41750        3.9328488E-18
   92.57900        3.9367122E-18
   92.74050        3.9410077E-18
   92.90200        3.9453608E-18
   93.06350        3.9493085E-18
   93.22500        3.9523554E-18
   93.38650        3.9540515E-18
   93.54800        3.9540888E-18
   93.70950        3.9523819E-18
   93.87100        3.9491158E-18
   94.03250        3.9447325E-18
   94.19400        3.9398538E-18
   94.35550        3.9351583E-18
   94.51700        3.9312511E-18
   94.67850        3.9285537E-18
   94.84000        3.9272459E-18
   95.00150        3.9272654E-18
   95.16300        3.9283531E-18
   95.32450        3.9301253E-18
   95.48600        3.9321474E-18
   95.64750        3.9339953E-18
   95.80900        3.9353093E-18
   95.97050        3.9358379E-18
   96.13200        3.9354809E-18
   96.29350        3.9343200E-18
   96.45500        3.9326288E-18
   96.61650        3.9308429E-18
   96.77800        3.9294859E-18
   96.93950        3.9290562E-18
   97.10100        3.9299082E-18
   97.26250        3.9321528E-18
   97.42400        3.9356215E-18
   97.58550        3.9398927E-18
   97.74700        3.9443863E-18
   97.90850        3.9484863E-18
   98.07000        3.9516606E-18
   98.23150        3.9535474E-18
   98.39300        3.9539899E-18
   98.55450        3.9530300E-18
   98.71600        3.9508723E-18
   98.87750        3.9478452E-18
   99.03900        3.9443611E-18
   99.20050        3.9408774E-18
   99.36200        3.9378520E-18
   99.52350        3.9356819E-18
   99.68500        3.9346347E-18
   99.84650        3.9347877E-18
   100.0080        3.9359975E-18
   100.1695        3.9379240E-18
   100.3310        3.9401086E-18
   100.4925        3.9420880E-18
   100.6540        3.9435162E-18
   100.8155        3.9442432E-18
   100.9770        3.9443425E-18
   101.1385        3.9440637E-18
   101.3000        3.9437478E-18
   101.4615        3.9437217E-18
   101.6230        3.9442197E-18
   101.7845        3.9453405E-18
   101.9460        3.9470478E-18
   102.1075        3.9491989E-18
   102.2690        3.9515779E-18
   102.4305        3.9539271E-18
   102.5920        3.9559669E-18
   102.7535        3.9574202E-18
   102.9150        3.9580481E-18
   103.0765        3.9576969E-18
   103.2380        3.9563577E-18
   103.3995        3.9541992E-18
   103.5610        3.9515671E-18
   103.7225        3.9489305E-18
   103.8840        3.9467856E-18
   104.0455        3.9455399E-18
   104.2070        3.9454170E-18
   104.3685        3.9464092E-18
   104.5300        3.9482915E-18
   104.6915        3.9506891E-18
   104.8530        3.9531731E-18
   105.0145        3.9553539E-18
   105.1760        3.9569425E-18
   105.3375        3.9577767E-18
   105.4990        3.9578227E-18
   105.6605        3.9571522E-18
   105.8220        3.9559297E-18
   105.9835        3.9543911E-18
   106.1450        3.9528244E-18
   106.3065        3.9515340E-18
   106.4680        3.9507862E-18
   106.6295        3.9507474E-18
   106.7910        3.9514306E-18
   106.9525        3.9526759E-18
   107.1140        3.9541793E-18
   107.2755        3.9555661E-18
   107.4370        3.9564930E-18
   107.5985        3.9567403E-18
   107.7600        3.9562729E-18
   107.9215        3.9552394E-18
   108.0830        3.9539279E-18
   108.2445        3.9526850E-18
   108.4060        3.9518359E-18
   108.5675        3.9516238E-18
   108.7290        3.9521809E-18
   108.8905        3.9535242E-18
   109.0520        3.9555653E-18
   109.2135        3.9581209E-18
   109.3750        3.9609262E-18
   109.5365        3.9636514E-18
   109.6980        3.9659418E-18
   109.8595        3.9674779E-18
   110.0210        3.9680524E-18
   110.1825        3.9676384E-18
   110.3440        3.9664282E-18
   110.5055        3.9648082E-18
   110.6670        3.9632829E-18
   110.8285        3.9623556E-18
   110.9900        3.9624048E-18
   111.1515        3.9635980E-18
   111.3130        3.9658583E-18
   111.4745        3.9688965E-18
   111.6360        3.9722884E-18
   111.7975        3.9755644E-18
   111.9590        3.9782871E-18
   112.1205        3.9801040E-18
   112.2820        3.9807724E-18
   112.4435        3.9801723E-18
   112.6050        3.9783144E-18
   112.7665        3.9753576E-18
   112.9280        3.9716105E-18
   113.0895        3.9675135E-18
   113.2510        3.9635807E-18
   113.4125        3.9603100E-18
   113.5740        3.9580754E-18
   113.7355        3.9570393E-18
   113.8970        3.9571167E-18
   114.0585        3.9580038E-18
   114.2200        3.9592719E-18
   114.3815        3.9604866E-18
   114.5430        3.9613212E-18
   114.7045        3.9616256E-18
   114.8660        3.9614333E-18
   115.0275        3.9609225E-18
   115.1890        3.9603418E-18
   115.3505        3.9599469E-18
   115.5120        3.9599522E-18
   115.6735        3.9605122E-18
   115.8350        3.9617133E-18
   115.9965        3.9635645E-18
   116.1580        3.9659832E-18
   116.3195        3.9687749E-18
   116.4810        3.9716295E-18
   116.6425        3.9741504E-18
   116.8040        3.9759218E-18
   116.9655        3.9766050E-18
   117.1270        3.9760372E-18
   117.2885        3.9742877E-18
   117.4500        3.9716668E-18
   117.6115        3.9686558E-18
   117.7730        3.9658025E-18
   117.9345        3.9636001E-18
   118.0960        3.9623912E-18
   118.2575        3.9623250E-18
   118.4190        3.9633610E-18
   118.5805        3.9653107E-18
   118.7420        3.9678940E-18