  -27.90000       -8.8229127E-18
  -27.73850       -8.8117764E-18
  -27.57700       -8.7913260E-18
  -27.41550       -8.7646337E-18
  -27.25400       -8.7354996E-18
  -27.09250       -8.7077932E-18
  -26.93100       -8.6847984E-18
  -26.76950       -8.6686675E-18
  -26.60800       -8.6600698E-18
  -26.44650       -8.6581193E-18
  -26.28500       -8.6605727E-18
  -26.12350       -8.6642744E-18
  -25.96200       -8.6657616E-18
  -25.80050       -8.6619227E-18
  -25.63900       -8.6505870E-18
  -25.47750       -8.6309481E-18
  -25.31600       -8.6037281E-18
  -25.15450       -8.5710718E-18
  -24.99300       -8.5361714E-18
  -24.83150       -8.5027020E-18
  -24.67000       -8.4741701E-18
  -24.50850       -8.4532896E-18
  -24.34700       -8.4414923E-18
  -24.18550       -8.4386782E-18
  -24.02400       -8.4432252E-18
  -23.86250       -8.4522787E-18
  -23.70100       -8.4622487E-18
  -23.53950       -8.4694436E-18
  -23.37800       -8.4707108E-18
  -23.21650       -8.4639958E-18
  -23.05500       -8.4486879E-18
  -22.89350       -8.4257279E-18
  -22.73200       -8.3974259E-18
  -22.57050       -8.3670378E-18
  -22.40900       -8.3381766E-18
  -22.24750       -8.3141553E-18
  -22.08600       -8.2973859E-18
  -21.92450       -8.2889511E-18
  -21.76300       -8.2884151E-18
  -21.60150       -8.2939109E-18
  -21.44000       -8.3024970E-18
  -21.27850       -8.3106944E-18
  -21.11700       -8.3151231E-18
  -20.95550       -8.3131122E-18
  -20.79400       -8.3031786E-18
  -20.63250       -8.2852834E-18
  -20.47100       -8.2608352E-18
  -20.30950       -8.2324323E-18
  -20.14800       -8.2033975E-18
  -19.98650       -8.1771758E-18
  -19.82500       -8.1567230E-18
  -19.66350       -8.1439670E-18
  -19.50200       -8.1394605E-18
  -19.34050       -8.1422754E-18
  -19.17900       -8.1501659E-18
  -19.01750       -8.1599779E-18
  -18.85600       -8.1682216E-18
  -18.69450       -8.1717090E-18
  -18.53300       -8.1681414E-18
  -18.37150       -8.1565228E-18
  -18.21000       -8.1373396E-18
  -18.04850       -8.1124655E-18
  -17.88700       -8.0848128E-18
  -17.72550       -8.0578071E-18
  -17.56400       -8.0347626E-18
  -17.40250       -8.0182951E-18
  -17.24100       -8.0098537E-18
  -17.07950       -8.0094724E-18
  -16.91800       -8.0157648E-18
  -16.75650       -8.0261724E-18
  -16.59500       -8.0374253E-18
  -16.43350       -8.0461165E-18
  -16.27200       -8.0493235E-18
  -16.11050       -8.0451297E-18
  -15.94900       -8.0329743E-18
  -15.78750       -8.0137547E-18
  -15.62600       -7.9896606E-18
  -15.46450       -7.9637657E-18
  -15.30300       -7.9394541E-18
  -15.14150       -7.9197953E-18
  -14.98000       -7.9069740E-18
  -14.81850       -7.9018868E-18
  -14.65700       -7.9039829E-18
  -14.49550       -7.9113721E-18
  -14.33400       -7.9211701E-18
  -14.17250       -7.9300250E-18
  -14.01100       -7.9347300E-18
  -13.84950       -7.9327953E-18
  -13.68800       -7.9229080E-18
  -13.52650       -7.9051798E-18
  -13.36500       -7.8811411E-18
  -13.20350       -7.8534910E-18
  -13.04200       -7.8256290E-18
  -12.88050       -7.8010576E-18
  -12.71900       -7.7827538E-18
  -12.55750       -7.7726307E-18
  -12.39600       -7.7711906E-18
  -12.23450       -7.7774267E-18
  -12.07300       -7.7890098E-18
  -11.91150       -7.8027128E-18
  -11.75000       -7.8150056E-18
  -11.58850       -7.8226909E-18
  -11.42700       -7.8234759E-18
  -11.26550       -7.8163737E-18
  -11.10400       -7.8018550E-18
  -10.94250       -7.7817438E-18
  -10.78100       -7.7588689E-18
  -10.61950       -7.7365450E-18
  -10.45800       -7.7179690E-18
  -10.29650       -7.7056349E-18
  -10.13500       -7.7008712E-18
  -9.973500       -7.7035810E-18
  -9.812000       -7.7122366E-18
  -9.650500       -7.7241249E-18
  -9.489000       -7.7358295E-18
  -9.327500       -7.7438440E-18
  -9.166000       -7.7452296E-18
  -9.004500       -7.7381646E-18
  -8.843000       -7.7223150E-18
  -8.681500       -7.6989149E-18
  -8.520000       -7.6705674E-18
  -8.358500       -7.6407922E-18
  -8.197000       -7.6134068E-18
  -8.035500       -7.5918562E-18
  -7.874000       -7.5786238E-18
  -7.712500       -7.5748163E-18
  -7.551000       -7.5799903E-18
  -7.389500       -7.5922475E-18
  -7.228000       -7.6085777E-18
  -7.066500       -7.6253835E-18
  -6.905000       -7.6391006E-18
  -6.743500       -7.6468141E-18
  -6.582000       -7.6467669E-18
  -6.420500       -7.6386614E-18
  -6.259000       -7.6237109E-18
  -6.097500       -7.6044095E-18
  -5.936000       -7.5840675E-18
  -5.774500       -7.5661797E-18
  -5.613000       -7.5537596E-18
  -5.451500       -7.5487535E-18
  -5.290000       -7.5516602E-18
  -5.128500       -7.5614209E-18
  -4.967000       -7.5756071E-18
  -4.805500       -7.5908603E-18
  -4.644000       -7.6035054E-18
  -4.482500       -7.6102080E-18
  -4.321000       -7.6085727E-18
  -4.159500       -7.5975753E-18
  -3.998000       -7.5777470E-18
  -3.836500       -7.5511052E-18
  -3.675000       -7.5208295E-18
  -3.513500       -7.4907425E-18
  -3.352000       -7.4646764E-18
  -3.190500       -7.4458299E-18
  -3.029000       -7.4362305E-18
  -2.867500       -7.4363893E-18
  -2.706000       -7.4452285E-18
  -2.544500       -7.4602931E-18
  -2.383000       -7.4782107E-18
  -2.221500       -7.4953275E-18
  -2.060000       -7.5083896E-18
  -1.898500       -7.5151394E-18
  -1.737000       -7.5147183E-18
  -1.575500       -7.5078023E-18
  -1.414000       -7.4964459E-18
  -1.252500       -7.4836800E-18
  -1.091000       -7.4729391E-18
 -0.9295000       -7.4674218E-18
 -0.7680000       -7.4695071E-18
 -0.6065000       -7.4803093E-18
 -0.4450000       -7.4994510E-18
 -0.2835000       -7.5251019E-18
 -0.1220000       -7.5542534E-18
  3.9500002E-02   -7.5832213E-18
  0.2010000       -7.6082633E-18
  0.3625000       -7.6262305E-18
  0.5240000       -7.6351219E-18
  0.6855000       -7.6344304E-18
  0.8470000       -7.6252321E-18
   1.008500       -7.6099698E-18
   1.170000       -7.5919853E-18
   1.331500       -7.5748916E-18
   1.493000       -7.5618933E-18
   1.654500       -7.5552113E-18
   1.816000       -7.5556877E-18
   1.977500       -7.5626625E-18
   2.139000       -7.5741132E-18
   2.300500       -7.5870379E-18
   2.462000       -7.5979964E-18
   2.623500       -7.6037271E-18
   2.785000       -7.6017195E-18
   2.946500       -7.5906709E-18
   3.108000       -7.5707350E-18
   3.269500       -7.5435274E-18
   3.431000       -7.5118728E-18
   3.592500       -7.4793340E-18
   3.754000       -7.4495927E-18
   3.915500       -7.4258014E-18
   4.077000       -7.4100221E-18
   4.238500       -7.4028703E-18
   4.400000       -7.4034344E-18
   4.561500       -7.4094902E-18
   4.723000       -7.4179589E-18
   4.884500       -7.4255226E-18
   5.046000       -7.4292590E-18
   5.207500       -7.4271910E-18
   5.369000       -7.4186330E-18
   5.530500       -7.4043021E-18
   5.692000       -7.3861703E-18
   5.853500       -7.3671013E-18
   6.015000       -7.3503468E-18
   6.176500       -7.3389631E-18
   6.338000       -7.3352673E-18
   6.499500       -7.3404008E-18
   6.661000       -7.3540914E-18
   6.822500       -7.3746469E-18
   6.984000       -7.3992174E-18
   7.145500       -7.4242686E-18
   7.307000       -7.4462071E-18
   7.468500       -7.4620219E-18
   7.630000       -7.4698388E-18
   7.791500       -7.4692449E-18
   7.953000       -7.4613428E-18
   8.114500       -7.4485075E-18
   8.276000       -7.4339086E-18
   8.437500       -7.4208954E-18
   8.599000       -7.4123696E-18
   8.760500       -7.4102578E-18
   8.922000       -7.4151837E-18
   9.083500       -7.4263696E-18
   9.245000       -7.4417916E-18
   9.406500       -7.4585403E-18
   9.568000       -7.4733345E-18
   9.729500       -7.4831060E-18
   9.891000       -7.4855585E-18
   10.05250       -7.4796119E-18
   10.21400       -7.4656342E-18
   10.37550       -7.4454345E-18
   10.53700       -7.4219699E-18
   10.69850       -7.3988361E-18
   10.86000       -7.3796199E-18
   11.02150       -7.3672361E-18
   11.18300       -7.3633947E-18
   11.34450       -7.3682900E-18
   11.50600       -7.3805811E-18
   11.66750       -7.3976599E-18
   11.82900       -7.4161449E-18
   11.99050       -7.4324941E-18
   12.15200       -7.4436362E-18
   12.31350       -7.4474942E-18
   12.47500       -7.4433285E-18
   12.63650       -7.4318414E-18
   12.79800       -7.4150488E-18
   12.95950       -7.3959112E-18
   13.12100       -7.3778108E-18
   13.28250       -7.3639340E-18
   13.44400       -7.3566714E-18
   13.60550       -7.3571495E-18
   13.76700       -7.3649821E-18
   13.92850       -7.3783030E-18
   14.09000       -7.3940897E-18
   14.25150       -7.4087226E-18
   14.41300       -7.4186644E-18
   14.57450       -7.4211352E-18
   14.73600       -7.4146410E-18
   14.89750       -7.3992522E-18
   15.05900       -7.3765949E-18
   15.22050       -7.3495626E-18
   15.38200       -7.3218107E-18
   15.54350       -7.2971334E-18
   15.70500       -7.2788345E-18
   15.86650       -7.2691764E-18
   16.02800       -7.2690093E-18
   16.18950       -7.2776277E-18
   16.35100       -7.2928792E-18
   16.51250       -7.3115206E-18
   16.67400       -7.3297798E-18
   16.83550       -7.3440205E-18
   16.99700       -7.3514114E-18
   17.15850       -7.3504527E-18
   17.32000       -7.3412610E-18
   17.48150       -7.3255438E-18
   17.64300       -7.3062572E-18
   17.80450       -7.2870211E-18
   17.96600       -7.2714180E-18
   18.12750       -7.2622975E-18
   18.28900       -7.2612545E-18
   18.45050       -7.2683442E-18
   18.61200       -7.2820944E-18
   18.77350       -7.2997771E-18
   18.93500       -7.3178948E-18
   19.09650       -7.3327832E-18
   19.25800       -7.3412370E-18
   19.41950       -7.3410675E-18
   19.58100       -7.3314978E-18
   19.74250       -7.3133395E-18
   19.90400       -7.2889030E-18
   20.06550       -7.2616391E-18
   20.22700       -7.2355614E-18
   20.38850       -7.2145394E-18
   20.55000       -7.2015957E-18
   20.71150       -7.1983432E-18
   20.87300       -7.2046869E-18
   21.03450       -7.2188532E-18
   21.19600       -7.2377402E-18
   21.35750       -7.2575139E-18
   21.51900       -7.2743272E-18
   21.68050       -7.2850094E-18
   21.84200       -7.2876101E-18
   22.00350       -7.2816974E-18
   22.16500       -7.2683897E-18
   22.32650       -7.2501181E-18
   22.48800       -7.2301798E-18
   22.64950       -7.2121572E-18
   22.81100       -7.1992912E-18
   22.97250       -7.1939071E-18
   23.13400       -7.1969759E-18
   23.29550       -7.2079079E-18
   23.45700       -7.2246186E-18
   23.61850       -7.2438688E-18
   23.78000       -7.2618467E-18
   23.94150       -7.2748682E-18
   24.10300       -7.2800720E-18
   24.26450       -7.2759667E-18
   24.42600       -7.2627029E-18
   24.58750       -7.2420316E-18
   24.74900       -7.2169622E-18
   24.91050       -7.1911873E-18
   25.07200       -7.1684076E-18
   25.23350       -7.1516778E-18
   25.39500       -7.1428940E-18
   25.55650       -7.1424920E-18
   25.71800       -7.1494031E-18
   25.87950       -7.1612549E-18
   26.04100       -7.1747934E-18
   26.20250       -7.1864500E-18
   26.36400       -7.1929790E-18
   26.52550       -7.1920509E-18
   26.68700       -7.1827021E-18
   26.84850       -7.1655488E-18
   27.01000       -7.1427079E-18
   27.17150       -7.1174218E-18
   27.33300       -7.0934625E-18
   27.49450       -7.0744241E-18
   27.65600       -7.0630504E-18
   27.81750       -7.0607384E-18
   27.97900       -7.0673112E-18
   28.14050       -7.0810929E-18
   28.30200       -7.0992652E-18
   28.46350       -7.1184078E-18
   28.62500       -7.1351218E-18
   28.78650       -7.1466279E-18
   28.94800       -7.1512320E-18
   29.10950       -7.1486090E-18
   29.27100       -7.1398475E-18
   29.43250       -7.1272586E-18
   29.59400       -7.1139750E-18
   29.75550       -7.1033813E-18
   29.91700       -7.0984736E-18
   30.07850       -7.1012637E-18
   30.24000       -7.1123404E-18
   30.40150       -7.1306898E-18
   30.56300       -7.1538277E-18
   30.72450       -7.1782337E-18
   30.88600       -7.1999935E-18
   31.04750       -7.2155188E-18
   31.20900       -7.2222016E-18
   31.37050       -7.2188581E-18
   31.53200       -7.2058954E-18
   31.69350       -7.1851828E-18
   31.85500       -7.1596742E-18
   32.01650       -7.1328620E-18
   32.17800       -7.1081764E-18
   32.33950       -7.0884134E-18
   32.50100       -7.0752885E-18
   32.66250       -7.0691641E-18
   32.82400       -7.0690011E-18
   32.98550       -7.0725539E-18
   33.14700       -7.0767799E-18
   33.30850       -7.0784227E-18
   33.47000       -7.0746640E-18
   33.63150       -7.0637287E-18
   33.79300       -7.0452975E-18
   33.95450       -7.0206533E-18
   34.11600       -6.9924902E-18
   34.27750       -6.9644257E-18
   34.43900       -6.9403299E-18
   34.60050       -6.9235894E-18
   34.76200       -6.9164864E-18
   34.92350       -6.9197881E-18
   35.08500       -6.9326330E-18
   35.24650       -6.9527012E-18
   35.40800       -6.9766282E-18
   35.56950       -7.0005685E-18
   35.73100       -7.0208270E-18
   35.89250       -7.0344440E-18
   36.05400       -7.0396718E-18
   36.21550       -7.0362531E-18
   36.37700       -7.0254641E-18
   36.53850       -7.0098916E-18
   36.70000       -6.9929708E-18
   36.86150       -6.9783463E-18
   37.02300       -6.9691671E-18
   37.18450       -6.9674598E-18
   37.34600       -6.9737141E-18
   37.50750       -6.9867678E-18
   37.66900       -7.0040335E-18
   37.83050       -7.0220107E-18
   37.99200       -7.0369677E-18
   38.15350       -7.0456639E-18
   38.31500       -7.0459551E-18
   38.47650       -7.0371778E-18
   38.63800       -7.0202620E-18
   38.79950       -6.9975642E-18
   38.96100       -6.9724667E-18
   39.12250       -6.9488118E-18
   39.28400       -6.9302623E-18
   39.44550       -6.9196764E-18
   39.60700       -6.9186032E-18
   39.76850       -6.9269751E-18
   39.93000       -6.9430736E-18
   40.09150       -6.9637962E-18
   40.25300       -6.9851854E-18
   40.41450       -7.0031418E-18
   40.57600       -7.0141839E-18
   40.73750       -7.0160996E-18
   40.89900       -7.0083473E-18
   41.06050       -6.9921329E-18
   41.22200       -6.9701514E-18
   41.38350       -6.9460523E-18
   41.54500       -6.9237536E-18
   41.70650       -6.9067356E-18
   41.86800       -6.8974513E-18
   42.02950       -6.8969248E-18
   42.19100       -6.9046110E-18
   42.35250       -6.9185031E-18
   42.51400       -6.9354822E-18
   42.67550       -6.9518459E-18
   42.83700       -6.9639509E-18
   42.99850       -6.9688660E-18
   43.16000       -6.9649319E-18
   43.32150       -6.9521106E-18
   43.48300       -6.9320403E-18
   43.64450       -6.9077667E-18
   43.80600       -6.8831820E-18
   43.96750       -6.8622817E-18
   44.12900       -6.8483941E-18
   44.29050       -6.8435423E-18
   44.45200       -6.8480777E-18
   44.61350       -6.8606459E-18
   44.77500       -6.8784754E-18
   44.93650       -6.8979125E-18
   45.09800       -6.9150856E-18
   45.25950       -6.9265710E-18
   45.42100       -6.9299533E-18
   45.58250       -6.9242114E-18
   45.74400       -6.9098743E-18
   45.90550       -6.8889405E-18
   46.06700       -6.8645618E-18
   46.22850       -6.8405272E-18
   46.39000       -6.8206149E-18
   46.55150       -6.8079132E-18
   46.71300       -6.8042326E-18
   46.87450       -6.8097371E-18
   47.03600       -6.8228893E-18
   47.19750       -6.8407349E-18
   47.35900       -6.8594800E-18
   47.52050       -6.8752436E-18
   47.68200       -6.8848132E-18
   47.84350       -6.8862459E-18
   48.00500       -6.8791996E-18
   48.16650       -6.8649340E-18
   48.32800       -6.8460181E-18
   48.48950       -6.8258154E-18
   48.65100       -6.8078615E-18
   48.81250       -6.7952441E-18
   48.97400       -6.7900767E-18
   49.13550       -6.7931343E-18
   49.29700       -6.8037074E-18
   49.45850       -6.8196860E-18
   49.62000       -6.8378869E-18
   49.78150       -6.8545885E-18
   49.94300       -6.8661938E-18
   50.10450       -6.8699103E-18
   50.26600       -6.8643128E-18
   50.42750       -6.8496606E-18
   50.58900       -6.8278792E-18
   50.75050       -6.8022176E-18
   50.91200       -6.7766238E-18
   51.07350       -6.7550001E-18
   51.23500       -6.7404768E-18
   51.39650       -6.7348702E-18
   51.55800       -6.7384027E-18
   51.71950       -6.7497342E-18
   51.88100       -6.7662584E-18
   52.04250       -6.7845978E-18
   52.20400       -6.8012064E-18
   52.36550       -6.8129747E-18
   52.52700       -6.8177566E-18
   52.68850       -6.8147448E-18
   52.85000       -6.8046251E-18
   53.01150       -6.7894724E-18
   53.17300       -6.7723920E-18
   53.33450       -6.7569382E-18
   53.49600       -6.7464189E-18
   53.65750       -6.7432173E-18
   53.81900       -6.7482792E-18
   53.98050       -6.7608830E-18
   54.14200       -6.7787534E-18
   54.30350       -6.7984907E-18
   54.46500       -6.8162226E-18
   54.62650       -6.8283292E-18
   54.78800       -6.8320983E-18
   54.94950       -6.8261864E-18
   55.11100       -6.8108186E-18
   55.27250       -6.7877217E-18
   55.43400       -6.7598126E-18
   55.59550       -6.7307165E-18
   55.75700       -6.7041769E-18
   55.91850       -6.6834452E-18
   56.08000       -6.6707339E-18
   56.24150       -6.6668259E-18
   56.40300       -6.6709159E-18
   56.56450       -6.6807408E-18
   56.72600       -6.6930000E-18
   56.88750       -6.7040044E-18
   57.04900       -6.7104221E-18
   57.21050       -6.7099737E-18
   57.37200       -6.7019079E-18
   57.53350       -6.6871531E-18
   57.69500       -6.6681234E-18
   57.85650       -6.6482197E-18
   58.01800       -6.6311596E-18
   58.17950       -6.6202718E-18
   58.34100       -6.6179023E-18
   58.50250       -6.6250169E-18
   58.66400       -6.6410514E-18
   58.82550       -6.6640044E-18
   58.98700       -6.6907468E-18
   59.14850       -6.7175007E-18
   59.31000       -6.7404256E-18
   59.47150       -6.7562446E-18
   59.63300       -6.7628070E-18
   59.79450       -6.7594962E-18
   59.95600       -6.7473751E-18
   60.11750       -6.7290204E-18
   60.27900       -6.7080448E-18
   60.44050       -6.6883938E-18
   60.60200       -6.6735621E-18
   60.76350       -6.6658991E-18
   60.92500       -6.6661675E-18
   61.08650       -6.6734405E-18
   61.24800       -6.6853428E-18
   61.40950       -6.6985723E-18
   61.57100       -6.7095610E-18
   61.73250       -6.7151473E-18
   61.89400       -6.7131327E-18
   62.05550       -6.7026453E-18
   62.21700       -6.6842811E-18
   62.37850       -6.6600067E-18
   62.54000       -6.6328615E-18
   62.70150       -6.6064769E-18
   62.86300       -6.5844813E-18
   63.02450       -6.5698646E-18
   63.18600       -6.5644177E-18
   63.34750       -6.5683530E-18
   63.50900       -6.5802102E-18
   63.67050       -6.5970925E-18
   63.83200       -6.6152049E-18
   63.99350       -6.6305863E-18
   64.15500       -6.6398818E-18
   64.31650       -6.6409860E-18
   64.47800       -6.6334144E-18
   64.63950       -6.6183440E-18
   64.80100       -6.5983387E-18
   64.96250       -6.5768312E-18
   65.12400       -6.5574871E-18
   65.28550       -6.5435661E-18
   65.44700       -6.5373813E-18
   65.60850       -6.5399244E-18
   65.77000       -6.5507071E-18
   65.93150       -6.5678281E-18
   66.09300       -6.5882715E-18
   66.25450       -6.6084059E-18
   66.41600       -6.6246190E-18
   66.57750       -6.6339827E-18
   66.73900       -6.6348223E-18
   66.90050       -6.6270592E-18
   67.06200       -6.6122399E-18
   67.22350       -6.5932267E-18
   67.38500       -6.5736184E-18
   67.54650       -6.5570218E-18
   67.70800       -6.5463421E-18
   67.86950       -6.5432402E-18
   68.03100       -6.5478592E-18
   68.19250       -6.5588499E-18
   68.35400       -6.5736631E-18
   68.51550       -6.5890246E-18
   68.67700       -6.6015113E-18
   68.83850       -6.6081255E-18
   69.00000       -6.6067995E-18
   69.16150       -6.5967658E-18
   69.32300       -6.5787312E-18
   69.48450       -6.5548178E-18
   69.64600       -6.5282542E-18
   69.80750       -6.5028370E-18
   69.96900       -6.4822501E-18
   70.13050       -6.4693643E-18
   70.29200       -6.4656771E-18
   70.45350       -6.4710190E-18
   70.61500       -6.4836087E-18
   70.77650       -6.5004423E-18
   70.93800       -6.5179202E-18
   71.09950       -6.5325671E-18
   71.26100       -6.5416809E-18
   71.42250       -6.5437799E-18
   71.58400       -6.5387908E-18
   71.74550       -6.5279700E-18
   71.90700       -6.5136135E-18
   72.06850       -6.4986216E-18
   72.23000       -6.4859889E-18
   72.39150       -6.4782895E-18
   72.55300       -6.4772134E-18
   72.71450       -6.4832183E-18
   72.87600       -6.4953692E-18
   73.03750       -6.5114152E-18
   73.19900       -6.5281371E-18
   73.36050       -6.5419204E-18
   73.52200       -6.5494643E-18
   73.68350       -6.5484700E-18
   73.84500       -6.5381443E-18
   74.00650       -6.5193988E-18
   74.16800       -6.4946839E-18
   74.32950       -6.4675093E-18
   74.49100       -6.4417650E-18
   74.65250       -6.4210032E-18
   74.81400       -6.4078353E-18
   74.97550       -6.4035443E-18
   75.13700       -6.4079548E-18
   75.29850       -6.4195424E-18
   75.46000       -6.4357406E-18
   75.62150       -6.4533736E-18
   75.78300       -6.4691711E-18
   75.94450       -6.4802922E-18
   76.10600       -6.4848094E-18
   76.26750       -6.4820615E-18
   76.42900       -6.4728070E-18
   76.59050       -6.4591101E-18
   76.75200       -6.4439574E-18
   76.91350       -6.4306510E-18
   77.07500       -6.4221120E-18
   77.23650       -6.4202417E-18
   77.39800       -6.4255047E-18
   77.55950       -6.4368230E-18
   77.72100       -6.4518107E-18
   77.88250       -6.4672661E-18
   78.04400       -6.4798107E-18
   78.20550       -6.4865216E-18
   78.36700       -6.4854385E-18
   78.52850       -6.4758750E-18
   78.69000       -6.4585071E-18
   78.85150       -6.4352480E-18
   79.01300       -6.4089520E-18
   79.17450       -6.3829735E-18
   79.33600       -6.3606425E-18
   79.49750       -6.3447152E-18
   79.65900       -6.3368810E-18
   79.82050       -6.3374368E-18
   79.98200       -6.3451978E-18
   80.14350       -6.3577094E-18
   80.30500       -6.3717243E-18
   80.46650       -6.3838603E-18
   80.62800       -6.3912892E-18
   80.78950       -6.3922946E-18
   80.95100       -6.3865780E-18
   81.11250       -6.3752543E-18
   81.27400       -6.3605594E-18
   81.43550       -6.3453658E-18
   81.59700       -6.3326139E-18
   81.75850       -6.3247843E-18
   81.92000       -6.3234786E-18
   82.08150       -6.3291625E-18
   82.24300       -6.3410805E-18
   82.40450       -6.3573528E-18
   82.56600       -6.3752410E-18
   82.72750       -6.3915758E-18
   82.88900       -6.4032936E-18
   83.05050       -6.4080086E-18
   83.21200       -6.4045017E-18
   83.37350       -6.3930159E-18
   83.53500       -6.3752543E-18
   83.69650       -6.3540702E-18
   83.85800       -6.3328948E-18
   84.01950       -6.3150446E-18
   84.18100       -6.3030683E-18
   84.34250       -6.2982876E-18
   84.50400       -6.3006186E-18
   84.66550       -6.3086869E-18
   84.82700       -6.3201723E-18
   84.98850       -6.3322847E-18
   85.15000       -6.3422580E-18
   85.31150       -6.3477973E-18
   85.47300       -6.3474196E-18
   85.63450       -6.3406777E-18
   85.79600       -6.3282406E-18
   85.95750       -6.3118228E-18
   86.11900       -6.2939341E-18
   86.28050       -6.2774650E-18
   86.44200       -6.2651458E-18
   86.60350       -6.2589862E-18
   86.76500       -6.2598154E-18
   86.92650       -6.2670603E-18
   87.08800       -6.2788290E-18
   87.24950       -6.2923009E-18
   87.41100       -6.3043351E-18
   87.57250       -6.3121396E-18
   87.73400       -6.3138361E-18
   87.89550       -6.3087982E-18
   88.05700       -6.2977053E-18
   88.21850       -6.2823404E-18
   88.38000       -6.2652136E-18
   88.54150       -6.2491022E-18
   88.70300       -6.2366018E-18
   88.86450       -6.2297375E-18
   89.02600       -6.2296606E-18
   89.18750       -6.2364600E-18
   89.34900       -6.2491039E-18
   89.51050       -6.2655511E-18
   89.67200       -6.2830410E-18
   89.83350       -6.2985577E-18
   89.99500       -6.3093855E-18
   90.15650       -6.3136537E-18
   90.31800       -6.3107284E-18
   90.47950       -6.3013403E-18
   90.64100       -6.2874098E-18
   90.80250       -6.2716023E-18
   90.96400       -6.2567375E-18
   91.12550       -6.2451917E-18
   91.28700       -6.2384398E-18
   91.44850       -6.2368273E-18
   91.61000       -6.2395768E-18
   91.77150       -6.2450072E-18
   91.93300       -6.2508769E-18
   92.09450       -6.2547870E-18
   92.25600       -6.2545860E-18
   92.41750       -6.2487374E-18
   92.57900       -6.2366105E-18
   92.74050       -6.2186632E-18
   92.90200       -6.1964550E-18
   93.06350       -6.1724705E-18
   93.22500       -6.1497305E-18
   93.38650       -6.1312596E-18
   93.54800       -6.1195000E-18
   93.70950       -6.1158190E-18
   93.87100       -6.1202316E-18
   94.03250       -6.1314134E-18
   94.19400       -6.1469987E-18
   94.35550       -6.1640759E-18
   94.51700       -6.1797621E-18
   94.67850       -6.1917091E-18
   94.84000       -6.1984552E-18
   95.00150       -6.1995806E-18
   95.16300       -6.1956738E-18
   95.32450       -6.1881564E-18
   95.48600       -6.1790086E-18
   95.64750       -6.1704311E-18
   95.80900       -6.1644692E-18
   95.97050       -6.1626333E-18
   96.13200       -6.1655690E-18
   96.29350       -6.1728523E-18
   96.45500       -6.1829840E-18
   96.61650       -6.1936195E-18
   96.77800       -6.2020265E-18
   96.93950       -6.2056686E-18
   97.10100       -6.2027788E-18
   97.26250       -6.1927762E-18
   97.42400       -6.1764054E-18
   97.58550       -6.1555845E-18
   97.74700       -6.1329987E-18
   97.90850       -6.1115747E-18
   98.07000       -6.0939608E-18
   98.23150       -6.0821147E-18
   98.39300       -6.0770660E-18
   98.55450       -6.0788395E-18
   98.71600       -6.0865087E-18
   98.87750       -6.0983539E-18
   99.03900       -6.1120996E-18
   99.20050       -6.1252286E-18
   99.36200       -6.1353669E-18
   99.52350       -6.1406960E-18
   99.68500       -6.1403176E-18
   99.84650       -6.1344744E-18
   100.0080       -6.1245383E-18
   100.1695       -6.1127307E-18
   100.3310       -6.1016279E-18
   100.4925       -6.0935629E-18
   100.6540       -6.0900900E-18
   100.8155       -6.0916542E-18
   100.9770       -6.0975429E-18
   101.1385       -6.1061116E-18
   101.3000       -6.1151961E-18
   101.4615       -6.1225870E-18
   101.6230       -6.1264437E-18
   101.7845       -6.1255830E-18
   101.9460       -6.1196170E-18
   102.1075       -6.1089716E-18
   102.2690       -6.0948132E-18
   102.4305       -6.0789023E-18
   102.5920       -6.0633708E-18
   102.7535       -6.0504196E-18
   102.9150       -6.0419522E-18
   103.0765       -6.0391919E-18
   103.2380       -6.0423865E-18
   103.3995       -6.0506810E-18
   103.5610       -6.0622417E-18
   103.7225       -6.0746142E-18
   103.8840       -6.0852468E-18
   104.0455       -6.0920338E-18
   104.2070       -6.0937424E-18
   104.3685       -6.0902103E-18
   104.5300       -6.0822905E-18
   104.6915       -6.0715744E-18
   104.8530       -6.0600149E-18
   105.0145       -6.0495296E-18
   105.1760       -6.0416821E-18
   105.3375       -6.0374656E-18
   105.4990       -6.0371880E-18
   105.6605       -6.0404463E-18
   105.8220       -6.0461778E-18
   105.9835       -6.0528031E-18
   106.1450       -6.0584640E-18
   106.3065       -6.0613591E-18
   106.4680       -6.0601237E-18
   106.6295       -6.0541672E-18
   106.7910       -6.0438721E-18
   106.9525       -6.0305702E-18
   107.1140       -6.0162848E-18
   107.2755       -6.0032889E-18
   107.4370       -5.9936039E-18
   107.5985       -5.9885697E-18
   107.7600       -5.9885961E-18
   107.9215       -5.9931423E-18
   108.0830       -6.0008922E-18
   108.2445       -6.0100511E-18
   108.4060       -6.0186819E-18
   108.5675       -6.0249975E-18
   108.7290       -6.0276010E-18
   108.8905       -6.0256563E-18
   109.0520       -6.0190107E-18
   109.2135       -6.0082495E-18
   109.3750       -5.9946581E-18
   109.5365       -5.9800534E-18
   109.6980       -5.9664794E-18
   109.8595       -5.9557914E-18
   110.0210       -5.9492397E-18
   110.1825       -5.9471569E-18
   110.3440       -5.9488621E-18
   110.5055       -5.9528284E-18
   110.6670       -5.9570702E-18
   110.8285       -5.9596407E-18
   110.9900       -5.9590964E-18
   111.1515       -5.9547996E-18
   111.3130       -5.9469981E-18
   111.4745       -5.9367013E-18
   111.6360       -5.9254273E-18
   111.7975       -5.9149055E-18
   111.9590       -5.9068182E-18
   112.1205       -5.9025855E-18
   112.2820       -5.9032001E-18
   112.4435       -5.9090809E-18
   112.6050       -5.9199455E-18
   112.7665       -5.9347496E-18
   112.9280       -5.9517395E-18
   113.0895       -5.9686723E-18
   113.2510       -5.9831980E-18
   113.4125       -5.9933268E-18
   113.5740       -5.9978647E-18
   113.7355       -5.9966736E-18
   113.8970       -5.9906740E-18
   114.0585       -5.9815779E-18
   114.2200       -5.9714371E-18
   114.3815       -5.9621466E-18
   114.5430       -5.9550494E-18
   114.7045       -5.9507332E-18
   114.8660       -5.9490395E-18
   115.0275       -5.9492261E-18
   115.1890       -5.9502046E-18
   115.3505       -5.9507621E-18
   115.5120       -5.9497468E-18
   115.6735       -5.9462147E-18
   115.8350       -5.9395658E-18
   115.9965       -5.9296885E-18
   116.1580       -5.9170756E-18
   116.3195       -5.9028667E-18
   116.4810       -5.8887476E-18
   116.6425       -5.8766794E-18
   116.8040       -5.8685007E-18
   116.9655       -5.8654951E-18
   117.1270       -5.8680619E-18
   117.2885       -5.8755938E-18
   117.4500       -5.8866081E-18
   117.6115       -5.8990902E-18
   117.7730       -5.9109396E-18
   117.9345       -5.9203848E-18
   118.0960       -5.9262648E-18
   118.2575       -5.9281297E-18
   118.4190       -5.9261891E-18
   118.5805       -5.9211656E-18
   118.7420       -5.9141201E-18