  -27.90000       -5.6818858E-18
  -27.73850       -5.6999213E-18
  -27.57700       -5.7282737E-18
  -27.41550       -5.7557560E-18
  -27.25400       -5.7732380E-18
  -27.09250       -5.7780510E-18
  -26.93100       -5.7750355E-18
  -26.76950       -5.7737194E-18
  -26.60800       -5.7831079E-18
  -26.44650       -5.8067893E-18
  -26.28500       -5.8408811E-18
  -26.12350       -5.8758771E-18
  -25.96200       -5.9014378E-18
  -25.80050       -5.9116609E-18
  -25.63900       -5.9081057E-18
  -25.47750       -5.8990195E-18
  -25.31600       -5.8951570E-18
  -25.15450       -5.9043424E-18
  -24.99300       -5.9275572E-18
  -24.83150       -5.9585438E-18
  -24.67000       -5.9871171E-18
  -24.50850       -6.0044486E-18
  -24.34700       -6.0076064E-18
  -24.18550       -6.0010158E-18
  -24.02400       -5.9941068E-18
  -23.86250       -5.9963923E-18
  -23.70100       -6.0125306E-18
  -23.53950       -6.0399173E-18
  -23.37800       -6.0700565E-18
  -23.21650       -6.0929739E-18
  -23.05500       -6.1023885E-18
  -22.89350       -6.0989528E-18
  -22.73200       -6.0899022E-18
  -22.57050       -6.0852882E-18
  -22.40900       -6.0927642E-18
  -22.24750       -6.1136204E-18
  -22.08600       -6.1421192E-18
  -21.92450       -6.1684740E-18
  -21.76300       -6.1839109E-18
  -21.60150       -6.1852066E-18
  -21.44000       -6.1763372E-18
  -21.27850       -6.1664028E-18
  -21.11700       -6.1649064E-18
  -20.95550       -6.1768401E-18
  -20.79400       -6.2001385E-18
  -20.63250       -6.2268014E-18
  -20.47100       -6.2471166E-18
  -20.30950       -6.2547655E-18
  -20.14800       -6.2501635E-18
  -19.98650       -6.2402816E-18
  -19.82500       -6.2350327E-18
  -19.66350       -6.2420906E-18
  -19.50200       -6.2628309E-18
  -19.34050       -6.2915180E-18
  -19.17900       -6.3181627E-18
  -19.01750       -6.3336111E-18
  -18.85600       -6.3342183E-18
  -18.69450       -6.3237073E-18
  -18.53300       -6.3112363E-18
  -18.37150       -6.3066765E-18
  -18.21000       -6.3155289E-18
  -18.04850       -6.3361278E-18
  -17.88700       -6.3605698E-18
  -17.72550       -6.3788992E-18
  -17.56400       -6.3843835E-18
  -17.40250       -6.3771291E-18
  -17.24100       -6.3641535E-18
  -17.07950       -6.3558391E-18
  -16.91800       -6.3605863E-18
  -16.75650       -6.3804134E-18
  -16.59500       -6.4097866E-18
  -16.43350       -6.4383032E-18
  -16.27200       -6.4558804E-18
  -16.11050       -6.4577883E-18
  -15.94900       -6.4469621E-18
  -15.78750       -6.4323967E-18
  -15.62600       -6.4244649E-18
  -15.46450       -6.4295703E-18
  -15.30300       -6.4468844E-18
  -15.14150       -6.4688576E-18
  -14.98000       -6.4852341E-18
  -14.81850       -6.4884965E-18
  -14.65700       -6.4779310E-18
  -14.49550       -6.4601813E-18
  -14.33400       -6.4460039E-18
  -14.17250       -6.4448520E-18
  -14.01100       -6.4600717E-18
  -13.84950       -6.4871565E-18
  -13.68800       -6.5159680E-18
  -13.52650       -6.5357844E-18
  -13.36500       -6.5405874E-18
  -13.20350       -6.5319004E-18
  -13.04200       -6.5177411E-18
  -12.88050       -6.5082624E-18
  -12.71900       -6.5103370E-18
  -12.55750       -6.5239007E-18
  -12.39600       -6.5419287E-18
  -12.23450       -6.5540630E-18
  -12.07300       -6.5520083E-18
  -11.91150       -6.5339150E-18
  -11.75000       -6.5054881E-18
  -11.58850       -6.4772502E-18
  -11.42700       -6.4593657E-18
  -11.26550       -6.4566815E-18
  -11.10400       -6.4665229E-18
  -10.94250       -6.4803513E-18
  -10.78100       -6.4884047E-18
  -10.61950       -6.4849062E-18
  -10.45800       -6.4711464E-18
  -10.29650       -6.4548646E-18
  -10.13500       -6.4462458E-18
  -9.973500       -6.4526329E-18
  -9.812000       -6.4746772E-18
  -9.650500       -6.5059223E-18
  -9.489000       -6.5360156E-18
  -9.327500       -6.5558807E-18
  -9.166000       -6.5621793E-18
  -9.004500       -6.5587502E-18
  -8.843000       -6.5543141E-18
  -8.681500       -6.5576505E-18
  -8.520000       -6.5727722E-18
  -8.358500       -6.5966148E-18
  -8.197000       -6.6204563E-18
  -8.035500       -6.6343268E-18
  -7.874000       -6.6321373E-18
  -7.712500       -6.6148600E-18
  -7.551000       -6.5901206E-18
  -7.389500       -6.5684001E-18
  -7.228000       -6.5578147E-18
  -7.066500       -6.5601730E-18
  -6.905000       -6.5703283E-18
  -6.743500       -6.5791464E-18
  -6.582000       -6.5785298E-18
  -6.420500       -6.5658541E-18
  -6.259000       -6.5455054E-18
  -6.097500       -6.5266916E-18
  -5.936000       -6.5186618E-18
  -5.774500       -6.5258131E-18
  -5.613000       -6.5452490E-18
  -5.451500       -6.5680775E-18
  -5.290000       -6.5838150E-18
  -5.128500       -6.5856501E-18
  -4.967000       -6.5738508E-18
  -4.805500       -6.5555656E-18
  -4.644000       -6.5411131E-18
  -4.482500       -6.5386816E-18
  -4.321000       -6.5501658E-18
  -4.159500       -6.5703018E-18
  -3.998000       -6.5895329E-18
  -3.836500       -6.5991195E-18
  -3.675000       -6.5958340E-18
  -3.513500       -6.5837795E-18
  -3.352000       -6.5723660E-18
  -3.190500       -6.5714615E-18
  -3.029000       -6.5862035E-18
  -2.867500       -6.6141631E-18
  -2.706000       -6.6463391E-18
  -2.544500       -6.6715119E-18
  -2.383000       -6.6817354E-18
  -2.221500       -6.6761809E-18
  -2.060000       -6.6613554E-18
  -1.898500       -6.6476093E-18
  -1.737000       -6.6437257E-18
  -1.575500       -6.6523929E-18
  -1.414000       -6.6688806E-18
  -1.252500       -6.6836003E-18
  -1.091000       -6.6872263E-18
 -0.9295000       -6.6757218E-18
 -0.7680000       -6.6526667E-18
 -0.6065000       -6.6276635E-18
 -0.4450000       -6.6116240E-18
 -0.2835000       -6.6113457E-18
 -0.1220000       -6.6261431E-18
  3.9500002E-02   -6.6482747E-18
  0.2010000       -6.6669310E-18
  0.3625000       -6.6737350E-18
  0.5240000       -6.6669475E-18
  0.6855000       -6.6522225E-18
  0.8470000       -6.6395484E-18
   1.008500       -6.6379710E-18
   1.170000       -6.6508283E-18
   1.331500       -6.6739455E-18
   1.493000       -6.6977195E-18
   1.654500       -6.7120123E-18
   1.816000       -6.7113229E-18
   1.977500       -6.6975772E-18
   2.139000       -6.6791145E-18
   2.300500       -6.6664053E-18
   2.462000       -6.6667143E-18
   2.623500       -6.6804637E-18
   2.785000       -6.7011597E-18
   2.946500       -6.7188936E-18
   3.108000       -6.7255930E-18
   3.269500       -6.7192944E-18
   3.431000       -6.7052224E-18
   3.592500       -6.6931261E-18
   3.754000       -6.6922464E-18
   3.915500       -6.7065211E-18
   4.077000       -6.7324983E-18
   4.238500       -6.7610199E-18
   4.400000       -6.7818016E-18
   4.561500       -6.7885336E-18
   4.723000       -6.7818710E-18
   4.884500       -6.7688003E-18
   5.046000       -6.7587439E-18
   5.207500       -6.7584540E-18
   5.369000       -6.7683789E-18
   5.530500       -6.7824033E-18
   5.692000       -6.7911011E-18
   5.853500       -6.7868139E-18
   6.015000       -6.7679024E-18
   6.176500       -6.7399462E-18
   6.338000       -6.7132407E-18
   6.499500       -6.6978601E-18
   6.661000       -6.6988147E-18
   6.822500       -6.7137858E-18
   6.984000       -6.7345902E-18
   7.145500       -6.7515900E-18
   7.307000       -6.7587530E-18
   7.468500       -6.7567161E-18
   7.630000       -6.7522749E-18
   7.791500       -6.7545675E-18
   7.953000       -6.7699534E-18
   8.114500       -6.7982753E-18
   8.276000       -6.8324932E-18
   8.437500       -6.8619132E-18
   8.599000       -6.8773963E-18
   8.760500       -6.8758458E-18
   8.922000       -6.8616816E-18
   9.083500       -6.8445138E-18
   9.245000       -6.8342055E-18
   9.406500       -6.8358673E-18
   9.568000       -6.8473569E-18
   9.729500       -6.8605773E-18
   9.891000       -6.8658853E-18
   10.05250       -6.8573393E-18
   10.21400       -6.8360443E-18
   10.37550       -6.8098434E-18
   10.53700       -6.7894960E-18
   10.69850       -6.7832884E-18
   10.86000       -6.7928543E-18
   11.02150       -6.8123655E-18
   11.18300       -6.8315217E-18
   11.34450       -6.8408176E-18
   11.50600       -6.8363831E-18
   11.66750       -6.8219045E-18
   11.82900       -6.8066480E-18
   11.99050       -6.8005930E-18
   12.15200       -6.8091965E-18
   12.31350       -6.8304828E-18
   12.47500       -6.8559699E-18
   12.63650       -6.8749669E-18
   12.79800       -6.8800367E-18
   12.95950       -6.8708111E-18
   13.12100       -6.8542059E-18
   13.28250       -6.8409065E-18
   13.44400       -6.8399404E-18
   13.60550       -6.8541025E-18
   13.76700       -6.8785866E-18
   13.92850       -6.9035022E-18
   14.09000       -6.9189663E-18
   14.25150       -6.9201488E-18
   14.41300       -6.9096700E-18
   14.57450       -6.8961291E-18
   14.73600       -6.8895365E-18
   14.89750       -6.8960273E-18
   15.05900       -6.9145827E-18
   15.22050       -6.9374542E-18
   15.38200       -6.9540785E-18
   15.54350       -6.9564591E-18
   15.70500       -6.9432490E-18
   15.86650       -6.9204436E-18
   16.02800       -6.8983381E-18
   16.18950       -6.8863332E-18
   16.35100       -6.8882663E-18
   16.51250       -6.9006608E-18
   16.67400       -6.9147733E-18
   16.83550       -6.9213444E-18
   16.99700       -6.9155703E-18
   17.15850       -6.8997137E-18
   17.32000       -6.8820037E-18
   17.48150       -6.8723973E-18
   17.64300       -6.8774100E-18
   17.80450       -6.8966986E-18
   17.96600       -6.9231551E-18
   18.12750       -6.9464709E-18
   18.28900       -6.9583128E-18
   18.45050       -6.9564351E-18
   18.61200       -6.9456114E-18
   18.77350       -6.9349301E-18
   18.93500       -6.9328778E-18
   19.09650       -6.9427800E-18
   19.25800       -6.9609987E-18
   19.41950       -6.9788070E-18
   19.58100       -6.9869862E-18
   19.74250       -6.9807393E-18
   19.90400       -6.9623577E-18
   20.06550       -6.9402505E-18
   20.22700       -6.9248012E-18
   20.38850       -6.9232093E-18
   20.55000       -6.9359487E-18
   20.71150       -6.9566907E-18
   20.87300       -6.9757001E-18
   21.03450       -6.9849389E-18
   21.19600       -6.9822125E-18
   21.35750       -6.9722053E-18
   21.51900       -6.9638582E-18
   21.68050       -6.9654696E-18
   21.84200       -6.9800817E-18
   22.00350       -7.0035720E-18
   22.16500       -7.0265006E-18
   22.32650       -7.0387735E-18
   22.48800       -7.0347526E-18
   22.64950       -7.0161600E-18
   22.81100       -6.9912735E-18
   22.97250       -6.9708098E-18
   23.13400       -6.9626042E-18
   23.29550       -6.9678088E-18
   23.45700       -6.9805739E-18
   23.61850       -6.9913570E-18
   23.78000       -6.9921346E-18
   23.94150       -6.9808063E-18
   24.10300       -6.9624983E-18
   24.26450       -6.9470615E-18
   24.42600       -6.9440497E-18
   24.58750       -6.9577594E-18
   24.74900       -6.9848942E-18
   24.91050       -7.0160872E-18
   25.07200       -7.0405031E-18
   25.23350       -7.0511729E-18
   25.39500       -7.0483307E-18
   25.55650       -7.0390324E-18
   25.71800       -7.0332686E-18
   25.87950       -7.0385849E-18
   26.04100       -7.0559805E-18
   26.20250       -7.0792234E-18
   26.36400       -7.0979334E-18
   26.52550       -7.1028676E-18
   26.68700       -7.0906865E-18
   26.84850       -7.0657619E-18
   27.01000       -7.0380960E-18
   27.17150       -7.0184141E-18
   27.33300       -7.0129522E-18
   27.49450       -7.0205954E-18
   27.65600       -7.0338021E-18
   27.81750       -7.0428052E-18
   27.97900       -7.0408919E-18
   28.14050       -7.0280135E-18
   28.30200       -7.0108669E-18
   28.46350       -6.9994022E-18
   28.62500       -7.0015785E-18
   28.78650       -7.0190866E-18
   28.94800       -7.0462545E-18
   29.10950       -7.0727218E-18
   29.27100       -7.0885119E-18
   29.43250       -7.0889155E-18
   29.59400       -7.0766890E-18
   29.75550       -7.0604696E-18
   29.91700       -7.0502490E-18
   30.07850       -7.0522640E-18
   30.24000       -7.0659174E-18
   30.40150       -7.0843089E-18
   30.56300       -7.0980410E-18
   30.72450       -7.1002917E-18
   30.88600       -7.0905103E-18
   31.04750       -7.0747864E-18
   31.20900       -7.0627245E-18
   31.37050       -7.0624333E-18
   31.53200       -7.0762613E-18
   31.69350       -7.0994745E-18
   31.85500       -7.1225859E-18
   32.01650       -7.1361277E-18
   32.17800       -7.1353964E-18
   32.33950       -7.1227340E-18
   32.50100       -7.1061655E-18
   32.66250       -7.0951318E-18
   32.82400       -7.0955371E-18
   32.98550       -7.1066875E-18
   33.14700       -7.1217174E-18
   33.30850       -7.1312721E-18
   33.47000       -7.1285135E-18
   33.63150       -7.1128475E-18
   33.79300       -7.0904177E-18
   33.95450       -7.0711014E-18
   34.11600       -7.0635484E-18
   34.27750       -7.0708482E-18
   34.43900       -7.0890628E-18
   34.60050       -7.1093725E-18
   34.76200       -7.1227406E-18
   34.92350       -7.1246365E-18
   35.08500       -7.1173647E-18
   35.24650       -7.1087811E-18
   35.40800       -7.1080399E-18
   35.56950       -7.1205924E-18
   35.73100       -7.1450430E-18
   35.89250       -7.1735344E-18
   36.05400       -7.1954886E-18
   36.21550       -7.2028216E-18
   36.37700       -7.1939493E-18
   36.53850       -7.1745204E-18
   36.70000       -7.1545093E-18
   36.86150       -7.1431554E-18
   37.02300       -7.1443548E-18
   37.18450       -7.1548857E-18
   37.34600       -7.1663537E-18
   37.50750       -7.1698576E-18
   37.66900       -7.1609100E-18
   37.83050       -7.1420594E-18
   37.99200       -7.1218224E-18
   38.15350       -7.1104321E-18
   38.31500       -7.1145995E-18
   38.47650       -7.1339803E-18
   38.63800       -7.1611855E-18
   38.79950       -7.1853631E-18
   38.96100       -7.1975318E-18
   39.12250       -7.1949468E-18
   39.28400       -7.1822777E-18
   39.44550       -7.1690056E-18
   39.60700       -7.1643842E-18
   39.76850       -7.1725857E-18
   39.93000       -7.1905040E-18
   40.09150       -7.2093671E-18
   40.25300       -7.2193081E-18
   40.41450       -7.2145312E-18
   40.57600       -7.1964085E-18
   40.73750       -7.1729174E-18
   40.89900       -7.1546855E-18
   41.06050       -7.1497050E-18
   41.22200       -7.1594037E-18
   41.38350       -7.1781087E-18
   41.54500       -7.1961347E-18
   41.70650       -7.2049061E-18
   41.86800       -7.2014402E-18
   42.02950       -7.1898878E-18
   42.19100       -7.1793363E-18
   42.35250       -7.1790038E-18
   42.51400       -7.1933330E-18
   42.67550       -7.2195000E-18
   42.83700       -7.2486466E-18
   42.99850       -7.2701822E-18
   43.16000       -7.2769734E-18
   43.32150       -7.2687438E-18
   43.48300       -7.2519809E-18
   43.64450       -7.2364324E-18
   43.80600       -7.2300226E-18
   43.96750       -7.2348550E-18
   44.12900       -7.2463338E-18
   44.29050       -7.2558455E-18
   44.45200       -7.2555552E-18
   44.61350       -7.2428009E-18
   44.77500       -7.2217632E-18
   44.93650       -7.2015312E-18
   45.09800       -7.1915455E-18
   45.25950       -7.1967799E-18
   45.42100       -7.2151689E-18
   45.58250       -7.2386079E-18
   45.74400       -7.2570193E-18
   45.90550       -7.2633935E-18
   46.06700       -7.2571980E-18
   46.22850       -7.2444164E-18
   46.39000       -7.2342230E-18
   46.55150       -7.2340493E-18
   46.71300       -7.2456191E-18
   46.87450       -7.2640230E-18
   47.03600       -7.2803127E-18
   47.19750       -7.2862502E-18
   47.35900       -7.2787212E-18
   47.52050       -7.2614977E-18
   47.68200       -7.2434047E-18
   47.84350       -7.2338334E-18
   48.00500       -7.2379213E-18
   48.16650       -7.2539149E-18
   48.32800       -7.2740915E-18
   48.48950       -7.2887814E-18
   48.65100       -7.2914052E-18
   48.81250       -7.2819116E-18
   48.97400       -7.2668106E-18
   49.13550       -7.2557851E-18
   49.29700       -7.2566082E-18
   49.45850       -7.2710160E-18
   49.62000       -7.2936849E-18
   49.78150       -7.3148549E-18
   49.94300       -7.3252642E-18
   50.10450       -7.3208487E-18
   50.26600       -7.3047815E-18
   50.42750       -7.2857862E-18
   50.58900       -7.2736043E-18
   50.75050       -7.2739641E-18
   50.91200       -7.2856629E-18
   51.07350       -7.3012867E-18
   51.23500       -7.3111980E-18
   51.39650       -7.3087247E-18
   51.55800       -7.2938603E-18
   51.71950       -7.2735034E-18
   51.88100       -7.2581103E-18
   52.04250       -7.2564270E-18
   52.20400       -7.2710202E-18
   52.36550       -7.2969002E-18
   52.52700       -7.3239572E-18
   52.68850       -7.3419699E-18
   52.85000       -7.3456252E-18
   53.01150       -7.3369779E-18
   53.17300       -7.3241152E-18
   53.33450       -7.3167376E-18
   53.49600       -7.3209488E-18
   53.65750       -7.3359737E-18
   53.81900       -7.3545017E-18
   53.98050       -7.3664660E-18
   54.14200       -7.3643220E-18
   54.30350       -7.3470711E-18
   54.46500       -7.3209570E-18
   54.62650       -7.2964551E-18
   54.78800       -7.2831044E-18
   54.94950       -7.2848308E-18
   55.11100       -7.2981608E-18
   55.27250       -7.3142321E-18
   55.43400       -7.3235279E-18
   55.59550       -7.3208925E-18
   55.75700       -7.3082176E-18
   55.91850       -7.2934310E-18
   56.08000       -7.2863139E-18
   56.24150       -7.2933367E-18
   56.40300       -7.3141758E-18
   56.56450       -7.3417226E-18
   56.72600       -7.3655768E-18
   56.88750       -7.3772128E-18
   57.04900       -7.3741489E-18
   57.21050       -7.3610017E-18
   57.37200       -7.3468809E-18
   57.53350       -7.3405513E-18
   57.69500       -7.3458544E-18
   57.85650       -7.3597932E-18
   58.01800       -7.3742515E-18
   58.17950       -7.3804322E-18
   58.34100       -7.3736633E-18
   58.50250       -7.3560634E-18
   58.66400       -7.3356395E-18
   58.82550       -7.3222888E-18
   58.98700       -7.3227603E-18
   59.14850       -7.3371971E-18
   59.31000       -7.3590570E-18
   59.47150       -7.3784403E-18
   59.63300       -7.3871141E-18
   59.79450       -7.3826201E-18
   59.95600       -7.3693463E-18
   60.11750       -7.3560411E-18
   60.27900       -7.3510846E-18
   60.44050       -7.3580048E-18
   60.60200       -7.3735914E-18
   60.76350       -7.3895973E-18
   60.92500       -7.3971238E-18
   61.08650       -7.3914047E-18
   61.24800       -7.3744500E-18
   61.40950       -7.3541576E-18
   61.57100       -7.3403296E-18
   61.73250       -7.3396455E-18
   61.89400       -7.3522170E-18
   62.05550       -7.3715267E-18
   62.21700       -7.3878040E-18
   62.37850       -7.3930897E-18
   62.54000       -7.3853746E-18
   62.70150       -7.3696474E-18
   62.86300       -7.3552975E-18
   63.02450       -7.3512244E-18
   63.18600       -7.3611713E-18
   63.34750       -7.3817226E-18
   63.50900       -7.4040043E-18
   63.67050       -7.4182145E-18
   63.83200       -7.4186388E-18
   63.99350       -7.4065537E-18
   64.15500       -7.3894898E-18
   64.31650       -7.3772632E-18
   64.47800       -7.3768124E-18
   64.63950       -7.3885551E-18
   64.80100       -7.4061467E-18
   64.96250       -7.4198217E-18
   65.12400       -7.4215521E-18
   65.28550       -7.4093876E-18
   65.44700       -7.3886816E-18
   65.60850       -7.3695465E-18
   65.77000       -7.3618189E-18
   65.93150       -7.3701123E-18
   66.09300       -7.3914792E-18
   66.25450       -7.4169001E-18
   66.41600       -7.4358136E-18
   66.57750       -7.4413672E-18
   66.73900       -7.4336976E-18
   66.90050       -7.4195686E-18
   67.06200       -7.4085977E-18
   67.22350       -7.4080567E-18
   67.38500       -7.4189598E-18
   67.54650       -7.4354860E-18
   67.70800       -7.4480294E-18
   67.86950       -7.4482998E-18
   68.03100       -7.4338143E-18
   68.19250       -7.4094356E-18
   68.35400       -7.3851413E-18
   68.51550       -7.3711553E-18
   68.67700       -7.3729272E-18
   68.83850       -7.3885377E-18
   69.00000       -7.4098417E-18
   69.16150       -7.4267353E-18
   69.32300       -7.4323303E-18
   69.48450       -7.4263713E-18
   69.64600       -7.4151431E-18
   69.80750       -7.4079690E-18
   69.96900       -7.4121438E-18
   70.13050       -7.4289471E-18
   70.29200       -7.4528345E-18
   70.45350       -7.4741939E-18
   70.61500       -7.4842466E-18
   70.77650       -7.4795152E-18
   70.93800       -7.4635630E-18
   71.09950       -7.4450788E-18
   71.26100       -7.4333543E-18
   71.42250       -7.4334817E-18
   71.58400       -7.4438000E-18
   71.74550       -7.4568984E-18
   71.90700       -7.4636391E-18
   72.06850       -7.4581003E-18
   72.23000       -7.4408337E-18
   72.39150       -7.4187480E-18
   72.55300       -7.4016684E-18
   72.71450       -7.3973571E-18
   72.87600       -7.4075943E-18
   73.03750       -7.4273391E-18
   73.19900       -7.4474024E-18
   73.36050       -7.4592244E-18
   73.52200       -7.4592410E-18
   73.68350       -7.4505903E-18
   73.84500       -7.4412514E-18
   74.00650       -7.4396277E-18
   74.16800       -7.4499029E-18
   74.32950       -7.4696188E-18
   74.49100       -7.4907764E-18
   74.65250       -7.5038955E-18
   74.81400       -7.5029244E-18
   74.97550       -7.4884388E-18
   75.13700       -7.4674267E-18
   75.29850       -7.4497648E-18
   75.46000       -7.4431961E-18
   75.62150       -7.4494149E-18
   75.78300       -7.4632991E-18
   75.94450       -7.4756895E-18
   76.10600       -7.4782703E-18
   76.26750       -7.4680083E-18
   76.42900       -7.4488276E-18
   76.59050       -7.4296370E-18
   76.75200       -7.4197290E-18
   76.91350       -7.4239386E-18
   77.07500       -7.4400901E-18
   77.23650       -7.4600756E-18
   77.39800       -7.4740169E-18
   77.55950       -7.4753495E-18
   77.72100       -7.4641966E-18
   77.88250       -7.4472700E-18
   78.04400       -7.4343321E-18
   78.20550       -7.4330648E-18
   78.36700       -7.4450027E-18
   78.52850       -7.4646664E-18
   78.69000       -7.4823499E-18
   78.85150       -7.4891452E-18
   79.01300       -7.4815889E-18
   79.17450       -7.4635282E-18
   79.33600       -7.4442177E-18
   79.49750       -7.4336240E-18
   79.65900       -7.4373496E-18
   79.82050       -7.4537874E-18
   79.98200       -7.4749847E-18
   80.14350       -7.4907367E-18
   80.30500       -7.4938155E-18
   80.46650       -7.4836163E-18
   80.62800       -7.4663456E-18
   80.78950       -7.4516838E-18
   80.95100       -7.4476654E-18
   81.11250       -7.4564517E-18
   81.27400       -7.4731955E-18
   81.43550       -7.4885844E-18
   81.59700       -7.4937394E-18
   81.75850       -7.4849133E-18
   81.92000       -7.4655433E-18
   82.08150       -7.4445866E-18
   82.24300       -7.4319870E-18
   82.40450       -7.4336306E-18
   82.56600       -7.4483751E-18
   82.72750       -7.4686874E-18
   82.88900       -7.4845535E-18
   83.05050       -7.4886001E-18
   83.21200       -7.4798022E-18
   83.37350       -7.4638633E-18
   83.53500       -7.4500998E-18
   83.69650       -7.4464966E-18
   83.85800       -7.4555096E-18
   84.01950       -7.4728117E-18
   84.18100       -7.4896018E-18
   84.34250       -7.4972689E-18
   84.50400       -7.4919320E-18
   84.66550       -7.4764852E-18
   84.82700       -7.4590797E-18
   84.98850       -7.4488383E-18
   85.15000       -7.4510477E-18
   85.31150       -7.4643629E-18
   85.47300       -7.4814739E-18
   85.63450       -7.4929089E-18
   85.79600       -7.4919733E-18
   85.95750       -7.4782669E-18
   86.11900       -7.4579315E-18
   86.28050       -7.4405128E-18
   86.44200       -7.4340823E-18
   86.60350       -7.4411497E-18
   86.76500       -7.4575014E-18
   86.92650       -7.4745455E-18
   87.08800       -7.4839058E-18
   87.24950       -7.4818528E-18
   87.41100       -7.4712103E-18
   87.57250       -7.4597695E-18
   87.73400       -7.4560191E-18
   87.89550       -7.4644721E-18
   88.05700       -7.4830505E-18
   88.21850       -7.5039559E-18
   88.38000       -7.5175845E-18
   88.54150       -7.5174637E-18
   88.70300       -7.5036482E-18
   88.86450       -7.4827585E-18
   89.02600       -7.4646524E-18
   89.18750       -7.4574121E-18
   89.34900       -7.4632726E-18
   89.51050       -7.4775903E-18
   89.67200       -7.4913918E-18
   89.83350       -7.4961704E-18
   89.99500       -7.4884198E-18
   90.15650       -7.4715312E-18
   90.31800       -7.4540570E-18
   90.47950       -7.4452525E-18
   90.64100       -7.4502082E-18
   90.80250       -7.4671521E-18
   90.96400       -7.4883122E-18
   91.12550       -7.5039426E-18
   91.28700       -7.5073862E-18
   91.44850       -7.4985536E-18
   91.61000       -7.4839695E-18
   91.77150       -7.4733543E-18
   91.93300       -7.4744967E-18
   92.09450       -7.4890782E-18
   92.25600       -7.5116470E-18
   92.41750       -7.5322653E-18
   92.57900       -7.5415148E-18
   92.74050       -7.5352440E-18
   92.90200       -7.5166456E-18
   93.06350       -7.4945632E-18
   93.22500       -7.4789469E-18
   93.38650       -7.4757912E-18
   93.54800       -7.4841937E-18
   93.70950       -7.4970423E-18
   93.87100       -7.5049402E-18
   94.03250       -7.5013056E-18
   94.19400       -7.4859738E-18
   94.35550       -7.4654093E-18
   94.51700       -7.4494116E-18
   94.67850       -7.4460342E-18
   94.84000       -7.4573666E-18
   95.00150       -7.4783720E-18
   95.16300       -7.4994146E-18
   95.32450       -7.5111457E-18
   95.48600       -7.5092449E-18
   95.64750       -7.4965377E-18
   95.80900       -7.4814326E-18
   95.97050       -7.4734817E-18
   96.13200       -7.4783985E-18
   96.29350       -7.4951125E-18
   96.45500       -7.5163719E-18
   96.61650       -7.5325565E-18
   96.77800       -7.5366858E-18
   96.93950       -7.5279995E-18
   97.10100       -7.5122624E-18
   97.26250       -7.4986404E-18
   97.42400       -7.4948279E-18
   97.58550       -7.5029815E-18
   97.74700       -7.5185961E-18
   97.90850       -7.5329213E-18
   98.07000       -7.5376138E-18
   98.23150       -7.5292014E-18
   98.39300       -7.5109853E-18
   98.55450       -7.4913910E-18
   98.71600       -7.4796210E-18
   98.87750       -7.4808883E-18
   99.03900       -7.4937203E-18
   99.20050       -7.5107569E-18
   99.36200       -7.5225972E-18
   99.52350       -7.5227039E-18
   99.68500       -7.5107776E-18
   99.84650       -7.4928576E-18
   100.0080       -7.4781056E-18
   100.1695       -7.4739846E-18
   100.3310       -7.4823656E-18
   100.4925       -7.4986172E-18
   100.6540       -7.5141476E-18
   100.8155       -7.5210388E-18
   100.9770       -7.5163255E-18
   101.1385       -7.5036225E-18
   101.3000       -7.4912462E-18
   101.4615       -7.4877754E-18
   101.6230       -7.4974046E-18
   101.7845       -7.5175365E-18
   101.9460       -7.5399126E-18
   102.1075       -7.5547299E-18
   102.2690       -7.5556075E-18
   102.4305       -7.5428317E-18
   102.5920       -7.5231597E-18
   102.7535       -7.5063133E-18
   102.9150       -7.4999573E-18
   103.0765       -7.5058046E-18
   103.2380       -7.5188782E-18
   103.3995       -7.5302966E-18
   103.5610       -7.5321239E-18
   103.7225       -7.5217105E-18
   103.8840       -7.5032461E-18
   104.0455       -7.4856636E-18
   104.2070       -7.4779965E-18
   104.3685       -7.4846114E-18
   104.5300       -7.5028144E-18
   104.6915       -7.5241341E-18
   104.8530       -7.5386156E-18
   105.0145       -7.5399250E-18
   105.1760       -7.5285877E-18
   105.3375       -7.5116834E-18
   105.4990       -7.4991334E-18
   105.6605       -7.4985056E-18
   105.8220       -7.5110407E-18
   105.9835       -7.5309658E-18
   106.1450       -7.5484598E-18
   106.3065       -7.5547166E-18
   106.4680       -7.5464862E-18
   106.6295       -7.5277241E-18
   106.7910       -7.5075036E-18
   106.9525       -7.4952912E-18
   107.1140       -7.4960662E-18
   107.2755       -7.5078188E-18
   107.4370       -7.5227453E-18
   107.5985       -7.5314869E-18
   107.7600       -7.5281873E-18
   107.9215       -7.5137133E-18
   108.0830       -7.4953209E-18
   108.2445       -7.4829554E-18
   108.4060       -7.4840804E-18
   108.5675       -7.4997521E-18
   108.7290       -7.5239811E-18
   108.8905       -7.5467004E-18
   109.0520       -7.5588252E-18
   109.2135       -7.5567523E-18
   109.3750       -7.5439881E-18
   109.5365       -7.5290840E-18
   109.6980       -7.5210024E-18
   109.8595       -7.5243434E-18
   110.0210       -7.5369571E-18
   110.1825       -7.5511606E-18
   110.3440       -7.5579046E-18
   110.5055       -7.5516726E-18
   110.6670       -7.5335243E-18
   110.8285       -7.5106800E-18
   110.9900       -7.4928551E-18
   111.1515       -7.4872816E-18
   111.3130       -7.4950223E-18
   111.4745       -7.5105336E-18
   111.6360       -7.5246734E-18
   111.7975       -7.5295844E-18
   111.9590       -7.5228586E-18
   112.1205       -7.5088056E-18
   112.2820       -7.4961506E-18
   112.4435       -7.4933696E-18
   112.6050       -7.5041337E-18
   112.7665       -7.5252624E-18
   112.9280       -7.5482572E-18
   113.0895       -7.5636212E-18
   113.2510       -7.5656867E-18
   113.4125       -7.5554214E-18
   113.5740       -7.5397480E-18
   113.7355       -7.5277472E-18
   113.8970       -7.5257819E-18
   114.0585       -7.5341140E-18
   114.2200       -7.5468278E-18
   114.3815       -7.5550996E-18
   114.5430       -7.5520721E-18
   114.7045       -7.5367552E-18
   114.8660       -7.5148358E-18
   115.0275       -7.4959446E-18
   115.1890       -7.4887664E-18
   115.3505       -7.4965526E-18
   115.5120       -7.5153999E-18
   115.6735       -7.5362043E-18
   115.8350       -7.5492994E-18
   115.9965       -7.5493515E-18
   116.1580       -7.5379712E-18
   116.3195       -7.5226692E-18
   116.4810       -7.5127331E-18
   116.6425       -7.5141988E-18
   116.8040       -7.5265760E-18
   116.9655       -7.5430757E-18
   117.1270       -7.5542261E-18
   117.2885       -7.5529671E-18
   117.4500       -7.5385469E-18
   117.6115       -7.5171246E-18
   117.7730       -7.4987306E-18
   117.9345       -7.4921545E-18
   118.0960       -7.5004139E-18
   118.2575       -7.5191942E-18
   118.4190       -7.5390837E-18
   118.5805       -7.5504583E-18
   118.7420       -7.5484681E-18