  -27.90000        9.1642430E-18
  -27.73850        9.1691143E-18
  -27.57700        9.1753744E-18
  -27.41550        9.1791438E-18
  -27.25400        9.1794069E-18
  -27.09250        9.1787021E-18
  -26.93100        9.1806683E-18
  -26.76950        9.1866513E-18
  -26.60800        9.1943880E-18
  -26.44650        9.1999350E-18
  -26.28500        9.2011270E-18
  -26.12350        9.1994999E-18
  -25.96200        9.1989631E-18
  -25.80050        9.2023876E-18
  -25.63900        9.2091234E-18
  -25.47750        9.2156167E-18
  -25.31600        9.2185731E-18
  -25.15450        9.2178534E-18
  -24.99300        9.2165539E-18
  -24.83150        9.2182174E-18
  -24.67000        9.2236710E-18
  -24.50850        9.2303091E-18
  -24.34700        9.2344409E-18
  -24.18550        9.2346104E-18
  -24.02400        9.2329172E-18
  -23.86250        9.2331596E-18
  -23.70100        9.2374427E-18
  -23.53950        9.2442727E-18
  -23.37800        9.2498355E-18
  -23.21650        9.2513493E-18
  -23.05500        9.2495080E-18
  -22.89350        9.2478652E-18
  -22.73200        9.2496891E-18
  -22.57050        9.2550923E-18
  -22.40900        9.2609652E-18
  -22.24750        9.2637834E-18
  -22.08600        9.2627801E-18
  -21.92450        9.2606625E-18
  -21.76300        9.2612101E-18
  -21.60150        9.2658961E-18
  -21.44000        9.2725077E-18
  -21.27850        9.2770374E-18
  -21.11700        9.2771705E-18
  -20.95550        9.2743151E-18
  -20.79400        9.2723646E-18
  -20.63250        9.2742953E-18
  -20.47100        9.2795809E-18
  -20.30950        9.2847028E-18
  -20.14800        9.2862960E-18
  -19.98650        9.2841346E-18
  -19.82500        9.2813296E-18
  -19.66350        9.2815645E-18
  -19.50200        9.2858212E-18
  -19.34050        9.2914923E-18
  -19.17900        9.2946737E-18
  -19.01750        9.2935892E-18
  -18.85600        9.2901325E-18
  -18.69450        9.2881671E-18
  -18.53300        9.2900969E-18
  -18.37150        9.2947547E-18
  -18.21000        9.2984688E-18
  -18.04850        9.2983563E-18
  -17.88700        9.2949194E-18
  -17.72550        9.2916528E-18
  -17.56400        9.2920110E-18
  -17.40250        9.2964331E-18
  -17.24100        9.3020265E-18
  -17.07950        9.3051838E-18
  -16.91800        9.3047537E-18
  -16.75650        9.3029612E-18
  -16.59500        9.3032573E-18
  -16.43350        9.3070450E-18
  -16.27200        9.3122231E-18
  -16.11050        9.3149007E-18
  -15.94900        9.3127716E-18
  -15.78750        9.3071848E-18
  -15.62600        9.3020604E-18
  -15.46450        9.3005905E-18
  -15.30300        9.3026353E-18
  -15.14150        9.3050697E-18
  -14.98000        9.3047512E-18
  -14.81850        9.3014491E-18
  -14.65700        9.2980982E-18
  -14.49550        9.2981727E-18
  -14.33400        9.3025137E-18
  -14.17250        9.3084661E-18
  -14.01100        9.3121214E-18
  -13.84950        9.3117144E-18
  -13.68800        9.3091634E-18
  -13.52650        9.3083825E-18
  -13.36500        9.3118261E-18
  -13.20350        9.3182971E-18
  -13.04200        9.3239418E-18
  -12.88050        9.3255383E-18
  -12.71900        9.3231990E-18
  -12.55750        9.3201269E-18
  -12.39600        9.3196810E-18
  -12.23450        9.3223842E-18
  -12.07300        9.3255399E-18
  -11.91150        9.3257616E-18
  -11.75000        9.3221700E-18
  -11.58850        9.3173715E-18
  -11.42700        9.3153168E-18
  -11.26550        9.3179158E-18
  -11.10400        9.3233727E-18
  -10.94250        9.3277096E-18
  -10.78100        9.3281348E-18
  -10.61950        9.3253133E-18
  -10.45800        9.3225852E-18
  -10.29650        9.3228830E-18
  -10.13500        9.3261214E-18
  -9.973500        9.3293805E-18
  -9.812000        9.3296684E-18
  -9.650500        9.3267699E-18
  -9.489000        9.3235994E-18
  -9.327500        9.3237069E-18
  -9.166000        9.3281472E-18
  -9.004500        9.3344859E-18
  -8.843000        9.3388460E-18
  -8.681500        9.3392016E-18
  -8.520000        9.3370154E-18
  -8.358500        9.3358077E-18
  -8.197000        9.3379443E-18
  -8.035500        9.3425079E-18
  -7.874000        9.3461483E-18
  -7.712500        9.3461326E-18
  -7.551000        9.3428652E-18
  -7.389500        9.3396094E-18
  -7.228000        9.3396541E-18
  -7.066500        9.3434170E-18
  -6.905000        9.3480624E-18
  -6.743500        9.3500021E-18
  -6.582000        9.3480417E-18
  -6.420500        9.3444162E-18
  -6.259000        9.3427817E-18
  -6.097500        9.3449406E-18
  -5.936000        9.3491973E-18
  -5.774500        9.3518054E-18
  -5.613000        9.3502296E-18
  -5.451500        9.3453550E-18
  -5.290000        9.3407137E-18
  -5.128500        9.3394175E-18
  -4.967000        9.3415293E-18
  -4.805500        9.3441738E-18
  -4.644000        9.3442532E-18
  -4.482500        9.3413432E-18
  -4.321000        9.3381644E-18
  -4.159500        9.3382223E-18
  -3.998000        9.3426857E-18
  -3.836500        9.3492850E-18
  -3.675000        9.3542009E-18
  -3.513500        9.3552853E-18
  -3.352000        9.3537857E-18
  -3.190500        9.3530834E-18
  -3.029000        9.3556005E-18
  -2.867500        9.3606322E-18
  -2.706000        9.3649989E-18
  -2.544500        9.3659146E-18
  -2.383000        9.3634901E-18
  -2.221500        9.3606364E-18
  -2.060000        9.3604685E-18
  -1.898500        9.3635340E-18
  -1.737000        9.3673481E-18
  -1.575500        9.3686658E-18
  -1.414000        9.3664498E-18
  -1.252500        9.3629062E-18
  -1.091000        9.3616439E-18
 -0.9295000        9.3645704E-18
 -0.7680000        9.3702565E-18
 -0.6065000        9.3752072E-18
 -0.4450000        9.3768772E-18
 -0.2835000        9.3757721E-18
 -0.1220000        9.3747787E-18
  3.9500002E-02    9.3763677E-18
  0.2010000        9.3802017E-18
  0.3625000        9.3833152E-18
  0.5240000        9.3827453E-18
  0.6855000        9.3782719E-18
  0.8470000        9.3728232E-18
   1.008500        9.3701374E-18
   1.170000        9.3717024E-18
   1.331500        9.3756257E-18
   1.493000        9.3783976E-18
   1.654500        9.3779790E-18
   1.816000        9.3754760E-18
   1.977500        9.3739788E-18
   2.139000        9.3756340E-18
   2.300500        9.3795937E-18
   2.462000        9.3826931E-18
   2.623500        9.3822506E-18
   2.785000        9.3785142E-18
   2.946500        9.3745587E-18
   3.108000        9.3737083E-18
   3.269500        9.3767341E-18
   3.431000        9.3812679E-18
   3.592500        9.3839157E-18
   3.754000        9.3831919E-18
   3.915500        9.3806814E-18
   4.077000        9.3794630E-18
   4.238500        9.3812323E-18
   4.400000        9.3847230E-18
   4.561500        9.3868282E-18
   4.723000        9.3854154E-18
   4.884500        9.3813076E-18
   5.046000        9.3776606E-18
   5.207500        9.3772817E-18
   5.369000        9.3802588E-18
   5.530500        9.3839968E-18
   5.692000        9.3856073E-18
   5.853500        9.3845105E-18
   6.015000        9.3829380E-18
   6.176500        9.3839000E-18
   6.338000        9.3884412E-18
   6.499500        9.3946360E-18
   6.661000        9.3992128E-18
   6.822500        9.4003716E-18
   6.984000        9.3992732E-18
   7.145500        9.3989042E-18
   7.307000        9.4013262E-18
   7.468500        9.4057723E-18
   7.630000        9.4092969E-18
   7.791500        9.4094036E-18
   7.953000        9.4063075E-18
   8.114500        9.4028143E-18
   8.276000        9.4019210E-18
   8.437500        9.4042379E-18
   8.599000        9.4075218E-18
   8.760500        9.4087096E-18
   8.922000        9.4066632E-18
   9.083500        9.4031923E-18
   9.245000        9.4014635E-18
   9.406500        9.4032205E-18
   9.568000        9.4072679E-18
   9.729500        9.4105551E-18
   9.891000        9.4108628E-18
   10.05250        9.4087146E-18
   10.21400        9.4068137E-18
   10.37550        9.4075317E-18
   10.53700        9.4106949E-18
   10.69850        9.4136587E-18
   10.86000        9.4135966E-18
   11.02150        9.4100108E-18
   11.18300        9.4052355E-18
   11.34450        9.4025074E-18
   11.50600        9.4033148E-18
   11.66750        9.4063174E-18
   11.82900        9.4087477E-18
   11.99050        9.4089760E-18
   12.15200        9.4079263E-18
   12.31350        9.4080942E-18
   12.47500        9.4110820E-18
   12.63650        9.4159011E-18
   12.79800        9.4196160E-18
   12.95950        9.4197806E-18
   13.12100        9.4165513E-18
   13.28250        9.4126015E-18
   13.44400        9.4108992E-18
   13.60550        9.4123112E-18
   13.76700        9.4150905E-18
   13.92850        9.4166473E-18
   14.09000        9.4159640E-18
   14.25150        9.4144867E-18
   14.41300        9.4147001E-18
   14.57450        9.4177094E-18
   14.73600        9.4220264E-18
   14.89750        9.4247032E-18
   15.05900        9.4238470E-18
   15.22050        9.4203017E-18
   15.38200        9.4170046E-18
   15.54350        9.4165538E-18
   15.70500        9.4191172E-18
   15.86650        9.4224706E-18
   16.02800        9.4240877E-18
   16.18950        9.4234095E-18
   16.35100        9.4222613E-18
   16.51250        9.4230976E-18
   16.67400        9.4266603E-18
   16.83550        9.4311585E-18
   16.99700        9.4337368E-18
   17.15850        9.4329270E-18
   17.32000        9.4299260E-18
   17.48150        9.4275652E-18
   17.64300        9.4278754E-18
   17.80450        9.4303867E-18
   17.96600        9.4326400E-18
   18.12750        9.4324216E-18
   18.28900        9.4297424E-18
   18.45050        9.4268001E-18
   18.61200        9.4260192E-18
   18.77350        9.4279085E-18
   18.93500        9.4306663E-18
   19.09650        9.4318434E-18
   19.25800        9.4305811E-18
   19.41950        9.4284106E-18
   19.58100        9.4278994E-18
   19.74250        9.4303743E-18
   19.90400        9.4347178E-18
   20.06550        9.4383326E-18
   20.22700        9.4393765E-18
   20.38850        9.4383070E-18
   20.55000        9.4373590E-18
   20.71150        9.4384476E-18
   20.87300        9.4413932E-18
   21.03450        9.4440336E-18
   21.19600        9.4441477E-18
   21.35750        9.4414561E-18
   21.51900        9.4379240E-18
   21.68050        9.4361034E-18
   21.84200        9.4369827E-18
   22.00350        9.4392558E-18
   22.16500        9.4406305E-18
   22.32650        9.4399878E-18
   22.48800        9.4384501E-18
   22.64950        9.4383847E-18
   22.81100        9.4412278E-18
   22.97250        9.4460692E-18
   23.13400        9.4502763E-18
   23.29550        9.4516320E-18
   23.45700        9.4501299E-18
   23.61850        9.4478741E-18
   23.78000        9.4471926E-18
   23.94150        9.4486608E-18
   24.10300        9.4507469E-18
   24.26450        9.4513690E-18
   24.42600        9.4499032E-18
   24.58750        9.4478493E-18
   24.74900        9.4475135E-18
   24.91050        9.4498916E-18
   25.07200        9.4536470E-18
   25.23350        9.4561096E-18
   25.39500        9.4554528E-18
   25.55650        9.4521689E-18
   25.71800        9.4485773E-18
   25.87950        9.4468410E-18
   26.04100        9.4472389E-18
   26.20250        9.4481951E-18
   26.36400        9.4479461E-18
   26.52550        9.4463149E-18
   26.68700        9.4449468E-18
   26.84850        9.4458021E-18
   27.01000        9.4492597E-18
   27.17150        9.4535569E-18
   27.33300        9.4561137E-18
   27.49450        9.4556017E-18
   27.65600        9.4529696E-18
   27.81750        9.4505410E-18
   27.97900        9.4500033E-18
   28.14050        9.4510662E-18
   28.30200        9.4519348E-18
   28.46350        9.4511159E-18
   28.62500        9.4489048E-18
   28.78650        9.4471942E-18
   28.94800        9.4477724E-18
   29.10950        9.4506609E-18
   29.27100        9.4539903E-18
   29.43250        9.4555719E-18
   29.59400        9.4547844E-18
   29.75550        9.4531135E-18
   29.91700        9.4528587E-18
   30.07850        9.4551451E-18
   30.24000        9.4589857E-18
   30.40150        9.4621852E-18
   30.56300        9.4632845E-18
   30.72450        9.4627882E-18
   30.88600        9.4626120E-18
   31.04750        9.4642623E-18
   31.20900        9.4673882E-18
   31.37050        9.4700211E-18
   31.53200        9.4703015E-18
   31.69350        9.4681492E-18
   31.85500        9.4654087E-18
   32.01650        9.4643160E-18
   32.17800        9.4656436E-18
   32.33950        9.4681392E-18
   32.50100        9.4697382E-18
   32.66250        9.4694437E-18
   32.82400        9.4682062E-18
   32.98550        9.4680309E-18
   33.14700        9.4701212E-18
   33.30850        9.4737211E-18
   33.47000        9.4766832E-18
   33.63150        9.4772606E-18
   33.79300        9.4755293E-18
   33.95450        9.4732099E-18
   34.11600        9.4720642E-18
   34.27750        9.4723364E-18
   34.43900        9.4726184E-18
   34.60050        9.4712627E-18
   34.76200        9.4680392E-18
   34.92350        9.4645468E-18
   35.08500        9.4629652E-18
   35.24650        9.4642449E-18
   35.40800        9.4673154E-18
   35.56950        9.4700112E-18
   35.73100        9.4708805E-18
   35.89250        9.4702982E-18
   36.05400        9.4699301E-18
   36.21550        9.4710766E-18
   36.37700        9.4734208E-18
   36.53850        9.4753192E-18
   36.70000        9.4753705E-18
   36.86150        9.4738269E-18
   37.02300        9.4725481E-18
   37.18450        9.4734812E-18
   37.34600        9.4769744E-18
   37.50750        9.4814081E-18
   37.66900        9.4844686E-18
   37.83050        9.4849724E-18
   37.99200        9.4836654E-18
   38.15350        9.4823568E-18
   38.31500        9.4822104E-18
   38.47650        9.4827415E-18
   38.63800        9.4824106E-18
   38.79950        9.4802442E-18
   38.96100        9.4769868E-18
   39.12250        9.4746938E-18
   39.28400        9.4750727E-18
   39.44550        9.4780141E-18
   39.60700        9.4816132E-18
   39.76850        9.4836770E-18
   39.93000        9.4834396E-18
   40.09150        9.4820177E-18
   40.25300        9.4812707E-18
   40.41450        9.4821194E-18
   40.57600        9.4838151E-18
   40.73750        9.4847796E-18
   40.89900        9.4842056E-18
   41.06050        9.4829284E-18
   41.22200        9.4827646E-18
   41.38350        9.4848764E-18
   41.54500        9.4886376E-18
   41.70650        9.4920241E-18
   41.86800        9.4932367E-18
   42.02950        9.4921382E-18
   42.19100        9.4902787E-18
   42.35250        9.4895128E-18
   42.51400        9.4904409E-18
   42.67550        9.4920373E-18
   42.83700        9.4927561E-18
   42.99850        9.4920688E-18
   43.16000        9.4910257E-18
   43.32150        9.4913152E-18
   43.48300        9.4936760E-18
   43.64450        9.4970889E-18
   43.80600        9.4995200E-18
   43.96750        9.4995754E-18
   44.12900        9.4976299E-18
   44.29050        9.4954412E-18
   44.45200        9.4945875E-18
   44.61350        9.4951244E-18
   44.77500        9.4956322E-18
   44.93650        9.4946008E-18
   45.09800        9.4918992E-18
   45.25950        9.4890082E-18
   45.42100        9.4878005E-18
   45.58250        9.4889470E-18
   45.74400        9.4913640E-18
   45.90550        9.4931879E-18
   46.06700        9.4934104E-18
   46.22850        9.4927156E-18
   46.39000        9.4927901E-18
   46.55150        9.4947058E-18
   46.71300        9.4978541E-18
   46.87450        9.5003736E-18
   47.03600        9.5007252E-18
   47.19750        9.4990220E-18
   47.35900        9.4969433E-18
   47.52050        9.4963180E-18
   47.68200        9.4976084E-18
   47.84350        9.4996176E-18
   48.00500        9.5006499E-18
   48.16650        9.5000593E-18
   48.32800        9.4987954E-18
   48.48950        9.4984844E-18
   48.65100        9.4998716E-18
   48.81250        9.5020636E-18
   48.97400        9.5032605E-18
   49.13550        9.5023614E-18
   49.29700        9.4999973E-18
   49.45850        9.4980848E-18
   49.62000        9.4982528E-18
   49.78150        9.5005250E-18
   49.94300        9.5033846E-18
   50.10450        9.5051357E-18
   50.26600        9.5053351E-18
   50.42750        9.5050307E-18
   50.58900        9.5056296E-18
   50.75050        9.5074576E-18
   50.91200        9.5093345E-18
   51.07350        9.5095959E-18
   51.23500        9.5076437E-18
   51.39650        9.5046287E-18
   51.55800        9.5026228E-18
   51.71950        9.5029503E-18
   51.88100        9.5051366E-18
   52.04250        9.5073774E-18
   52.20400        9.5081037E-18
   52.36550        9.5072740E-18
   52.52700        9.5062772E-18
   52.68850        9.5065585E-18
   52.85000        9.5082509E-18
   53.01150        9.5100442E-18
   53.17300        9.5104082E-18
   53.33450        9.5090855E-18
   53.49600        9.5074651E-18
   53.65750        9.5074750E-18
   53.81900        9.5099284E-18
   53.98050        9.5137831E-18
   54.14200        9.5169553E-18
   54.30350        9.5180166E-18
   54.46500        9.5172763E-18
   54.62650        9.5163482E-18
   54.78800        9.5166129E-18
   54.94950        9.5179678E-18
   55.11100        9.5189720E-18
   55.27250        9.5182457E-18
   55.43400        9.5158411E-18
   55.59550        9.5133405E-18
   55.75700        9.5125754E-18
   55.91850        9.5140709E-18
   56.08000        9.5166220E-18
   56.24150        9.5183574E-18
   56.40300        9.5183673E-18
   56.56450        9.5174475E-18
   56.72600        9.5173168E-18
   56.88750        9.5190034E-18
   57.04900        9.5218547E-18
   57.21050        9.5240385E-18
   57.37200        9.5240997E-18
   57.53350        9.5221839E-18
   57.69500        9.5198438E-18
   57.85650        9.5186246E-18
   58.01800        9.5186957E-18
   58.17950        9.5187743E-18
   58.34100        9.5173970E-18
   58.50250        9.5143944E-18
   58.66400        9.5112188E-18
   58.82550        9.5098043E-18
   58.98700        9.5109334E-18
   59.14850        9.5135548E-18
   59.31000        9.5156748E-18
   59.47150        9.5160272E-18
   59.63300        9.5150875E-18
   59.79450        9.5145325E-18
   59.95600        9.5156715E-18
   60.11750        9.5182498E-18
   60.27900        9.5206966E-18
   60.44050        9.5215933E-18
   60.60200        9.5210151E-18
   60.76350        9.5205337E-18
   60.92500        9.5218340E-18
   61.08650        9.5251643E-18
   61.24800        9.5290065E-18
   61.40950        9.5312904E-18
   61.57100        9.5311026E-18
   61.73250        9.5294193E-18
   61.89400        9.5282314E-18
   62.05550        9.5288369E-18
   62.21700        9.5308089E-18
   62.37850        9.5325220E-18
   62.54000        9.5327247E-18
   62.70150        9.5317263E-18
   62.86300        9.5311191E-18
   63.02450        9.5322846E-18
   63.18600        9.5350276E-18
   63.34750        9.5375926E-18
   63.50900        9.5380790E-18
   63.67050        9.5360450E-18
   63.83200        9.5328818E-18
   63.99350        9.5306336E-18
   64.15500        9.5303035E-18
   64.31650        9.5311109E-18
   64.47800        9.5313284E-18
   64.63950        9.5299255E-18
   64.80100        9.5275176E-18
   64.96250        9.5258012E-18
   65.12400        9.5259674E-18
   65.28550        9.5275614E-18
   65.44700        9.5288303E-18
   65.60850        9.5282695E-18
   65.77000        9.5260022E-18
   65.93150        9.5237448E-18
   66.09300        9.5233767E-18
   66.25450        9.5253454E-18
   66.41600        9.5283282E-18
   66.57750        9.5304276E-18
   66.73900        9.5308412E-18
   66.90050        9.5305244E-18
   67.06200        9.5312606E-18
   67.22350        9.5339845E-18
   67.38500        9.5378466E-18
   67.54650        9.5408947E-18
   67.70800        9.5417467E-18
   67.86950        9.5407856E-18
   68.03100        9.5397896E-18
   68.19250        9.5403281E-18
   68.35400        9.5423382E-18
   68.51550        9.5441613E-18
   68.67700        9.5440256E-18
   68.83850        9.5416657E-18
   69.00000        9.5386465E-18
   69.16150        9.5370947E-18
   69.32300        9.5379310E-18
   69.48450        9.5401602E-18
   69.64600        9.5418121E-18
   69.80750        9.5416880E-18
   69.96900        9.5403587E-18
   70.13050        9.5395316E-18
   70.29200        9.5403877E-18
   70.45350        9.5423944E-18
   70.61500        9.5436840E-18
   70.77650        9.5426930E-18
   70.93800        9.5396143E-18
   71.09950        9.5363568E-18
   71.26100        9.5350234E-18
   71.42250        9.5362203E-18
   71.58400        9.5386539E-18
   71.74550        9.5403405E-18
   71.90700        9.5403430E-18
   72.06850        9.5394877E-18
   72.23000        9.5394662E-18
   72.39150        9.5411520E-18
   72.55300        9.5436923E-18
   72.71450        9.5452110E-18
   72.87600        9.5445120E-18
   73.03750        9.5422505E-18
   73.19900        9.5404919E-18
   73.36050        9.5410089E-18
   73.52200        9.5437866E-18
   73.68350        9.5470473E-18
   73.84500        9.5487695E-18
   74.00650        9.5483683E-18
   74.16800        9.5470713E-18
   74.32950        9.5466809E-18
   74.49100        9.5478753E-18
   74.65250        9.5495669E-18
   74.81400        9.5499209E-18
   74.97550        9.5481053E-18
   75.13700        9.5451895E-18
   75.29850        9.5433432E-18
   75.46000        9.5440008E-18
   75.62150        9.5466073E-18
   75.78300        9.5490565E-18
   75.94450        9.5494577E-18
   76.10600        9.5477058E-18
   76.26750        9.5454831E-18
   76.42900        9.5447188E-18
   76.59050        9.5458851E-18
   76.75200        9.5476338E-18
   76.91350        9.5480854E-18
   77.07500        9.5466056E-18
   77.23650        9.5444582E-18
   77.39800        9.5437411E-18
   77.55950        9.5455278E-18
   77.72100        9.5488795E-18
   77.88250        9.5516018E-18
   78.04400        9.5521130E-18
   78.20550        9.5507655E-18
   78.36700        9.5494784E-18
   78.52850        9.5499937E-18
   78.69000        9.5523206E-18
   78.85150        9.5547293E-18
   79.01300        9.5552943E-18
   79.17450        9.5536052E-18
   79.33600        9.5511270E-18
   79.49750        9.5498903E-18
   79.65900        9.5506894E-18
   79.82050        9.5524074E-18
   79.98200        9.5530584E-18
   80.14350        9.5516167E-18
   80.30500        9.5489846E-18
   80.46650        9.5472169E-18
   80.62800        9.5476735E-18
   80.78950        9.5497547E-18
   80.95100        9.5513503E-18
   81.11250        9.5506398E-18
   81.27400        9.5476660E-18
   81.43550        9.5442978E-18
   81.59700        9.5426376E-18
   81.75850        9.5432704E-18
   81.92000        9.5449140E-18
   82.08150        9.5457371E-18
   82.24300        9.5451415E-18
   82.40450        9.5443780E-18
   82.56600        9.5454062E-18
   82.72750        9.5490152E-18
   82.88900        9.5538939E-18
   83.05050        9.5575318E-18
   83.21200        9.5582192E-18
   83.37350        9.5564151E-18
   83.53500        9.5543083E-18
   83.69650        9.5539435E-18
   83.85800        9.5555631E-18
   84.01950        9.5575732E-18
   84.18100        9.5581282E-18
   84.34250        9.5568635E-18
   84.50400        9.5552323E-18
   84.66550        9.5551264E-18
   84.82700        9.5570504E-18
   84.98850        9.5595080E-18
   85.15000        9.5602003E-18
   85.31150        9.5580199E-18
   85.47300        9.5540858E-18
   85.63450        9.5508962E-18
   85.79600        9.5503221E-18
   85.95750        9.5521593E-18
   86.11900        9.5544878E-18
   86.28050        9.5554482E-18
   86.44200        9.5548600E-18
   86.60350        9.5542363E-18
   86.76500        9.5552364E-18
   86.92650        9.5579760E-18
   87.08800        9.5607595E-18
   87.24950        9.5615056E-18
   87.41100        9.5596097E-18
   87.57250        9.5565657E-18
   87.73400        9.5547674E-18
   87.89550        9.5555119E-18
   88.05700        9.5579405E-18
   88.21850        9.5598546E-18
   88.38000        9.5596469E-18
   88.54150        9.5576658E-18
   88.70300        9.5558072E-18
   88.86450        9.5557269E-18
   89.02600        9.5573010E-18
   89.18750        9.5587271E-18
   89.34900        9.5581762E-18
   89.51050        9.5555284E-18
   89.67200        9.5526076E-18
   89.83350        9.5516820E-18
   89.99500        9.5535324E-18
   90.15650        9.5567998E-18
   90.31800        9.5591870E-18
   90.47950        9.5594732E-18
   90.64100        9.5585517E-18
   90.80250        9.5585873E-18
   90.96400        9.5610333E-18
   91.12550        9.5652693E-18
   91.28700        9.5690693E-18
   91.44850        9.5704789E-18
   91.61000        9.5694507E-18
   91.77150        9.5677988E-18
   91.93300        9.5675109E-18
   92.09450        9.5689560E-18
   92.25600        9.5705674E-18
   92.41750        9.5702969E-18
   92.57900        9.5675391E-18
   92.74050        9.5638043E-18
   92.90200        9.5615155E-18
   93.06350        9.5619688E-18
   93.22500        9.5642452E-18
   93.38650        9.5660220E-18
   93.54800        9.5655580E-18
   93.70950        9.5631236E-18
   93.87100        9.5606354E-18
   94.03250        9.5598612E-18
   94.19400        9.5608298E-18
   94.35550        9.5618638E-18
   94.51700        9.5611962E-18
   94.67850        9.5586982E-18
   94.84000        9.5561372E-18
   95.00150        9.5557062E-18
   95.16300        9.5580918E-18
   95.32450        9.5618166E-18
   95.48600        9.5644313E-18
   95.64750        9.5645554E-18
   95.80900        9.5629614E-18
   95.97050        9.5617968E-18
   96.13200        9.5626488E-18
   96.29350        9.5651742E-18
   96.45500        9.5675184E-18
   96.61650        9.5680916E-18
   96.77800        9.5670982E-18
   96.93950        9.5664050E-18
   97.10100        9.5678451E-18
   97.26250        9.5714500E-18
   97.42400        9.5752277E-18
   97.58550        9.5767183E-18
   97.74700        9.5750093E-18
   97.90850        9.5714558E-18
   98.07000        9.5684911E-18
   98.23150        9.5675630E-18
   98.39300        9.5680180E-18
   98.55450        9.5678683E-18
   98.71600        9.5657333E-18
   98.87750        9.5621963E-18
   99.03900        9.5593582E-18
   99.20050        9.5589720E-18
   99.36200        9.5608439E-18
   99.52350        9.5629300E-18
   99.68500        9.5630855E-18
   99.84650        9.5609340E-18
   100.0080        9.5582134E-18
   100.1695        9.5572928E-18
   100.3310        9.5591531E-18
   100.4925        9.5625967E-18
   100.6540        9.5653528E-18
   100.8155        9.5660807E-18
   100.9770        9.5654843E-18
   101.1385        9.5655720E-18
   101.3000        9.5677401E-18
   101.4615        9.5714070E-18
   101.6230        9.5744394E-18
   101.7845        9.5749920E-18
   101.9460        9.5731209E-18
   102.1075        9.5707444E-18
   102.2690        9.5699486E-18
   102.4305        9.5711671E-18
   102.5920        9.5728256E-18
   102.7535        9.5727718E-18
   102.9150        9.5702208E-18
   103.0765        9.5664910E-18
   103.2380        9.5638763E-18
   103.3995        9.5636662E-18
   103.5610        9.5650699E-18
   103.7225        9.5659988E-18
   103.8840        9.5649938E-18
   104.0455        9.5625619E-18
   104.2070        9.5607322E-18
   104.3685        9.5612004E-18
   104.5300        9.5637398E-18
   104.6915        9.5663099E-18
   104.8530        9.5667946E-18
   105.0145        9.5648573E-18
   105.1760        9.5622724E-18
   105.3375        9.5614237E-18
   105.4990        9.5632915E-18
   105.6605        9.5666738E-18
   105.8220        9.5693208E-18
   105.9835        9.5699462E-18
   106.1450        9.5693266E-18
   106.3065        9.5695235E-18
   106.4680        9.5719239E-18
   106.6295        9.5758754E-18
   106.7910        9.5791419E-18
   106.9525        9.5798061E-18
   107.1140        9.5779375E-18
   107.2755        9.5755586E-18
   107.4370        9.5749026E-18
   107.5985        9.5765098E-18
   107.7600        9.5788069E-18
   107.9215        9.5795249E-18
   108.0830        9.5777010E-18
   108.2445        9.5744882E-18
   108.4060        9.5720869E-18
   108.5675        9.5717693E-18
   108.7290        9.5727801E-18
   108.8905        9.5730812E-18
   109.0520        9.5712680E-18
   109.2135        9.5679287E-18
   109.3750        9.5652271E-18
   109.5365        9.5650360E-18
   109.6980        9.5672975E-18
   109.8595        9.5700396E-18
   110.0210        9.5710587E-18
   110.1825        9.5697691E-18
   110.3440        9.5676127E-18
   110.5055        9.5666730E-18
   110.6670        9.5677665E-18
   110.8285        9.5696988E-18
   110.9900        9.5703705E-18
   111.1515        9.5687153E-18
   111.3130        9.5657308E-18
   111.4745        9.5636629E-18
   111.6360        9.5640492E-18
   111.7975        9.5663554E-18
   111.9590        9.5684316E-18
   112.1205        9.5683894E-18
   112.2820        9.5662569E-18
   112.4435        9.5639425E-18
   112.6050        9.5635438E-18
   112.7665        9.5655050E-18
   112.9280        9.5682422E-18
   113.0895        9.5695772E-18
   113.2510        9.5686847E-18
   113.4125        9.5668368E-18
   113.5740        9.5662602E-18
   113.7355        9.5681388E-18
   113.8970        9.5715302E-18
   114.0585        9.5741615E-18
   114.2200        9.5744171E-18
   114.3815        9.5727594E-18
   114.5430        9.5713184E-18
   114.7045        9.5720216E-18
   114.8660        9.5748977E-18
   115.0275        9.5780542E-18
   115.1890        9.5793322E-18
   115.3505        9.5781692E-18
   115.5120        9.5760334E-18
   115.6735        9.5750697E-18
   115.8350        9.5761682E-18
   115.9965        9.5781965E-18
   116.1580        9.5790609E-18
   116.3195        9.5776464E-18
   116.4810        9.5748853E-18
   116.6425        9.5730009E-18
   116.8040        9.5735676E-18
   116.9655        9.5761235E-18
   117.1270        9.5785488E-18
   117.2885        9.5788888E-18
   117.4500        9.5770103E-18
   117.6115        9.5746429E-18
   117.7730        9.5737843E-18
   117.9345        9.5749142E-18
   118.0960        9.5766041E-18
   118.2575        9.5768597E-18
   118.4190        9.5749820E-18
   118.5805        9.5722664E-18
   118.7420        9.5708933E-18