  -27.90000        6.1148090E-18
  -27.73850        6.1309845E-18
  -27.57700        6.1590359E-18
  -27.41550        6.1920156E-18
  -27.25400        6.2223847E-18
  -27.09250        6.2442309E-18
  -26.93100        6.2549686E-18
  -26.76950        6.2560001E-18
  -26.60800        6.2521504E-18
  -26.44650        6.2500497E-18
  -26.28500        6.2559682E-18
  -26.12350        6.2737774E-18
  -25.96200        6.3036684E-18
  -25.80050        6.3420165E-18
  -25.63900        6.3824462E-18
  -25.47750        6.4177556E-18
  -25.31600        6.4421116E-18
  -25.15450        6.4528389E-18
  -24.99300        6.4512436E-18
  -24.83150        6.4422191E-18
  -24.67000        6.4327615E-18
  -24.50850        6.4298453E-18
  -24.34700        6.4383177E-18
  -24.18550        6.4594509E-18
  -24.02400        6.4906009E-18
  -23.86250        6.5260675E-18
  -23.70100        6.5588834E-18
  -23.53950        6.5829825E-18
  -23.37800        6.5950680E-18
  -23.21650        6.5956160E-18
  -23.05500        6.5886995E-18
  -22.89350        6.5806991E-18
  -22.73200        6.5783040E-18
  -22.57050        6.5864240E-18
  -22.40900        6.6066634E-18
  -22.24750        6.6368253E-18
  -22.08600        6.6715946E-18
  -21.92450        6.7041888E-18
  -21.76300        6.7284596E-18
  -21.60150        6.7407961E-18
  -21.44000        6.7412445E-18
  -21.27850        6.7334901E-18
  -21.11700        6.7237223E-18
  -20.95550        6.7187166E-18
  -20.79400        6.7237397E-18
  -20.63250        6.7409215E-18
  -20.47100        6.7685935E-18
  -20.30950        6.8018061E-18
  -20.14800        6.8338556E-18
  -19.98650        6.8583555E-18
  -19.82500        6.8711987E-18
  -19.66350        6.8718240E-18
  -19.50200        6.8633798E-18
  -19.34050        6.8517463E-18
  -19.17900        6.8437119E-18
  -19.01750        6.8448761E-18
  -18.85600        6.8579208E-18
  -18.69450        6.8817841E-18
  -18.53300        6.9119985E-18
  -18.37150        6.9420910E-18
  -18.21000        6.9655978E-18
  -18.04850        6.9780882E-18
  -17.88700        6.9785531E-18
  -17.72550        6.9697337E-18
  -17.56400        6.9572879E-18
  -17.40250        6.9480533E-18
  -17.24100        6.9479350E-18
  -17.07950        6.9600747E-18
  -16.91800        6.9838644E-18
  -16.75650        7.0151029E-18
  -16.59500        7.0472537E-18
  -16.43350        7.0734241E-18
  -16.27200        7.0884531E-18
  -16.11050        7.0904698E-18
  -15.94900        7.0814486E-18
  -15.78750        7.0665866E-18
  -15.62600        7.0526991E-18
  -15.46450        7.0461313E-18
  -15.30300        7.0508172E-18
  -15.14150        7.0671061E-18
  -14.98000        7.0916758E-18
  -14.81850        7.1185931E-18
  -14.65700        7.1411636E-18
  -14.49550        7.1540179E-18
  -14.33400        7.1547914E-18
  -14.17250        7.1448776E-18
  -14.01100        7.1290197E-18
  -13.84950        7.1138765E-18
  -13.68800        7.1059803E-18
  -13.52650        7.1097290E-18
  -13.36500        7.1260237E-18
  -13.20350        7.1519707E-18
  -13.04200        7.1817343E-18
  -12.88050        7.2082926E-18
  -12.71900        7.2255360E-18
  -12.55750        7.2300822E-18
  -12.39600        7.2222645E-18
  -12.23450        7.2059765E-18
  -12.07300        7.1874410E-18
  -11.91150        7.1732946E-18
  -11.75000        7.1685515E-18
  -11.58850        7.1751019E-18
  -11.42700        7.1911807E-18
  -11.26550        7.2119818E-18
  -11.10400        7.2312187E-18
  -10.94250        7.2431359E-18
  -10.78100        7.2443519E-18
  -10.61950        7.2349592E-18
  -10.45800        7.2185438E-18
  -10.29650        7.2011184E-18
  -10.13500        7.1893071E-18
  -9.973500        7.1883211E-18
  -9.812000        7.2003682E-18
  -9.650500        7.2239610E-18
  -9.489000        7.2543458E-18
  -9.327500        7.2849143E-18
  -9.166000        7.3091656E-18
  -9.004500        7.3226172E-18
  -8.843000        7.3240739E-18
  -8.681500        7.3158765E-18
  -8.520000        7.3030519E-18
  -8.358500        7.2916500E-18
  -8.197000        7.2867771E-18
  -8.035500        7.2909527E-18
  -7.874000        7.3032901E-18
  -7.712500        7.3197560E-18
  -7.551000        7.3344269E-18
  -7.389500        7.3413545E-18
  -7.228000        7.3364625E-18
  -7.066500        7.3188874E-18
  -6.905000        7.2913506E-18
  -6.743500        7.2594289E-18
  -6.582000        7.2299465E-18
  -6.420500        7.2089866E-18
  -6.259000        7.2001283E-18
  -6.097500        7.2034552E-18
  -5.936000        7.2156429E-18
  -5.774500        7.2310855E-18
  -5.613000        7.2437133E-18
  -5.451500        7.2489344E-18
  -5.290000        7.2450988E-18
  -5.128500        7.2340336E-18
  -4.967000        7.2204819E-18
  -4.805500        7.2106211E-18
  -4.644000        7.2101107E-18
  -4.482500        7.2222860E-18
  -4.321000        7.2470435E-18
  -4.159500        7.2807850E-18
  -3.998000        7.3174366E-18
  -3.836500        7.3502169E-18
  -3.675000        7.3736360E-18
  -3.513500        7.3850817E-18
  -3.352000        7.3855243E-18
  -3.190500        7.3791219E-18
  -3.029000        7.3718493E-18
  -2.867500        7.3695787E-18
  -2.706000        7.3762011E-18
  -2.544500        7.3923667E-18
  -2.383000        7.4152308E-18
  -2.221500        7.4392968E-18
  -2.060000        7.4580879E-18
  -1.898500        7.4661413E-18
  -1.737000        7.4607167E-18
  -1.575500        7.4426767E-18
  -1.414000        7.4162822E-18
  -1.252500        7.3879521E-18
  -1.091000        7.3643865E-18
 -0.9295000        7.3506131E-18
 -0.7680000        7.3485584E-18
 -0.6065000        7.3565829E-18
 -0.4450000        7.3700949E-18
 -0.2835000        7.3830733E-18
 -0.1220000        7.3900002E-18
  3.9500002E-02    7.3876270E-18
  0.2010000        7.3760216E-18
  0.3625000        7.3585731E-18
  0.5240000        7.3409475E-18
  0.6855000        7.3293306E-18
  0.8470000        7.3284885E-18
   1.008500        7.3402618E-18
   1.170000        7.3629480E-18
   1.331500        7.3917637E-18
   1.493000        7.4202427E-18
   1.654500        7.4421374E-18
   1.816000        7.4532414E-18
   1.977500        7.4525846E-18
   2.139000        7.4426287E-18
   2.300500        7.4284376E-18
   2.462000        7.4160679E-18
   2.623500        7.4106788E-18
   2.785000        7.4149653E-18
   2.946500        7.4283681E-18
   3.108000        7.4473196E-18
   3.269500        7.4664308E-18
   3.431000        7.4802389E-18
   3.592500        7.4849729E-18
   3.754000        7.4797757E-18
   3.915500        7.4670206E-18
   4.077000        7.4516127E-18
   4.238500        7.4394986E-18
   4.400000        7.4358549E-18
   4.561500        7.4434939E-18
   4.723000        7.4619947E-18
   4.884500        7.4878110E-18
   5.046000        7.5153321E-18
   5.207500        7.5385643E-18
   5.369000        7.5529117E-18
   5.530500        7.5565182E-18
   5.692000        7.5507577E-18
   5.853500        7.5397207E-18
   6.015000        7.5288805E-18
   6.176500        7.5233425E-18
   6.338000        7.5262459E-18
   6.499500        7.5377867E-18
   6.661000        7.5551856E-18
   6.822500        7.5735871E-18
   6.984000        7.5876128E-18
   7.145500        7.5930871E-18
   7.307000        7.5883953E-18
   7.468500        7.5750471E-18
   7.630000        7.5572701E-18
   7.791500        7.5407571E-18
   7.953000        7.5309393E-18
   8.114500        7.5313372E-18
   8.276000        7.5424802E-18
   8.437500        7.5617452E-18
   8.599000        7.5841444E-18
   8.760500        7.6038371E-18
   8.922000        7.6158759E-18
   9.083500        7.6176841E-18
   9.245000        7.6097787E-18
   9.406500        7.5955653E-18
   9.568000        7.5802318E-18
   9.729500        7.5691245E-18
   9.891000        7.5660780E-18
   10.05250        7.5722355E-18
   10.21400        7.5857028E-18
   10.37550        7.6021637E-18
   10.53700        7.6162456E-18
   10.69850        7.6232246E-18
   10.86000        7.6205379E-18
   11.02150        7.6086339E-18
   11.18300        7.5909008E-18
   11.34450        7.5726946E-18
   11.50600        7.5597633E-18
   11.66750        7.5565513E-18
   11.82900        7.5648827E-18
   11.99050        7.5834388E-18
   12.15200        7.6081740E-18
   12.31350        7.6335494E-18
   12.47500        7.6541967E-18
   12.63650        7.6665217E-18
   12.79800        7.6697361E-18
   12.95950        7.6660278E-18
   13.12100        7.6598050E-18
   13.28250        7.6562564E-18
   13.44400        7.6596916E-18
   13.60550        7.6721564E-18
   13.76700        7.6927507E-18
   13.92850        7.7178689E-18
   14.09000        7.7422575E-18
   14.25150        7.7605911E-18
   14.41300        7.7690639E-18
   14.57450        7.7665220E-18
   14.73600        7.7547909E-18
   14.89750        7.7380960E-18
   15.05900        7.7217641E-18
   15.22050        7.7106046E-18
   15.38200        7.7074679E-18
   15.54350        7.7124277E-18
   15.70500        7.7228353E-18
   15.86650        7.7342173E-18
   16.02800        7.7417306E-18
   16.18950        7.7417281E-18
   16.35100        7.7329501E-18
   16.51250        7.7169714E-18
   16.67400        7.6977800E-18
   16.83550        7.6806177E-18
   16.99700        7.6704227E-18
   17.15850        7.6703805E-18
   17.32000        7.6809982E-18
   17.48150        7.6999968E-18
   17.64300        7.7230471E-18
   17.80450        7.7451171E-18
   17.96600        7.7620048E-18
   18.12750        7.7715868E-18
   18.28900        7.7743935E-18
   18.45050        7.7733413E-18
   18.61200        7.7727126E-18
   18.77350        7.7767079E-18
   18.93500        7.7880221E-18
   19.09650        7.8068868E-18
   19.25800        7.8308841E-18
   19.41950        7.8555903E-18
   19.58100        7.8758596E-18
   19.74250        7.8873524E-18
   19.90400        7.8878421E-18
   20.06550        7.8778911E-18
   20.22700        7.8606850E-18
   20.38850        7.8410882E-18
   20.55000        7.8242022E-18
   20.71150        7.8138773E-18
   20.87300        7.8116431E-18
   21.03450        7.8163597E-18
   21.19600        7.8247191E-18
   21.35750        7.8324012E-18
   21.51900        7.8355461E-18
   21.68050        7.8320579E-18
   21.84200        7.8223526E-18
   22.00350        7.8093013E-18
   22.16500        7.7973800E-18
   22.32650        7.7912944E-18
   22.48800        7.7945022E-18
   22.64950        7.8080928E-18
   22.81100        7.8303696E-18
   22.97250        7.8572737E-18
   23.13400        7.8835259E-18
   23.29550        7.9041227E-18
   23.45700        7.9157520E-18
   23.61850        7.9176934E-18
   23.78000        7.9119321E-18
   23.94150        7.9024634E-18
   24.10300        7.8940104E-18
   24.26450        7.8905404E-18
   24.42600        7.8940468E-18
   24.58750        7.9039655E-18
   24.74900        7.9174014E-18
   24.91050        7.9300887E-18
   25.07200        7.9377906E-18
   25.23350        7.9376822E-18
   25.39500        7.9293070E-18
   25.55650        7.9147925E-18
   25.71800        7.8982629E-18
   25.87950        7.8846384E-18
   26.04100        7.8781666E-18
   26.20250        7.8811659E-18
   26.36400        7.8933363E-18
   26.52550        7.9118568E-18
   26.68700        7.9322518E-18
   26.84850        7.9497243E-18
   27.01000        7.9605869E-18
   27.17150        7.9633224E-18
   27.33300        7.9589730E-18
   27.49450        7.9507442E-18
   27.65600        7.9429481E-18
   27.81750        7.9396319E-18
   27.97900        7.9433079E-18
   28.14050        7.9541837E-18
   28.30200        7.9701226E-18
   28.46350        7.9873329E-18
   28.62500        8.0015662E-18
   28.78650        8.0094526E-18
   28.94800        8.0095526E-18
   29.10950        8.0028078E-18
   29.27100        7.9922522E-18
   29.43250        7.9820836E-18
   29.59400        7.9763744E-18
   29.75550        7.9778352E-18
   29.91700        7.9869938E-18
   30.07850        8.0020534E-18
   30.24000        8.0194540E-18
   30.40150        8.0349711E-18
   30.56300        8.0450040E-18
   30.72450        8.0476592E-18
   30.88600        8.0432917E-18
   31.04750        8.0343581E-18
   31.20900        8.0246255E-18
   31.37050        8.0179816E-18
   31.53200        8.0172355E-18
   31.69350        8.0232574E-18
   31.85500        8.0347287E-18
   32.01650        8.0485807E-18
   32.17800        8.0609628E-18
   32.33950        8.0684529E-18
   32.50100        8.0691312E-18
   32.66250        8.0631721E-18
   32.82400        8.0527943E-18
   32.98550        8.0415596E-18
   33.14700        8.0332721E-18
   33.30850        8.0307980E-18
   33.47000        8.0351895E-18
   33.63150        8.0453613E-18
   33.79300        8.0584481E-18
   33.95450        8.0706995E-18
   34.11600        8.0786537E-18
   34.27750        8.0802187E-18
   34.43900        8.0753449E-18
   34.60050        8.0660582E-18
   34.76200        8.0558665E-18
   34.92350        8.0487172E-18
   35.08500        8.0478089E-18
   35.24650        8.0546489E-18
   35.40800        8.0686191E-18
   35.56950        8.0871910E-18
   35.73100        8.1067141E-18
   35.89250        8.1235208E-18
   36.05400        8.1350211E-18
   36.21550        8.1404399E-18
   36.37700        8.1409842E-18
   36.53850        8.1393952E-18
   36.70000        8.1390271E-18
   36.86150        8.1427378E-18
   37.02300        8.1519319E-18
   37.18450        8.1660560E-18
   37.34600        8.1827006E-18
   37.50750        8.1982847E-18
   37.66900        8.2091133E-18
   37.83050        8.2124890E-18
   37.99200        8.2075375E-18
   38.15350        8.1954838E-18
   38.31500        8.1793306E-18
   38.47650        8.1629996E-18
   38.63800        8.1502296E-18
   38.79950        8.1435468E-18
   38.96100        8.1436171E-18
   39.12250        8.1491642E-18
   39.28400        8.1574716E-18
   39.44550        8.1653066E-18
   39.60700        8.1699785E-18
   39.76850        8.1702027E-18
   39.93000        8.1665036E-18
   40.09150        8.1610409E-18
   40.25300        8.1569041E-18
   40.41450        8.1571151E-18
   40.57600        8.1636349E-18
   40.73750        8.1766977E-18
   40.89900        8.1946583E-18
   41.06050        8.2144180E-18
   41.22200        8.2322834E-18
   41.38350        8.2450022E-18
   41.54500        8.2506816E-18
   41.70650        8.2492952E-18
   41.86800        8.2426414E-18
   42.02950        8.2337732E-18
   42.19100        8.2260614E-18
   42.35250        8.2221927E-18
   42.51400        8.2234020E-18
   42.67550        8.2291683E-18
   42.83700        8.2374624E-18
   42.99850        8.2454505E-18
   43.16000        8.2504351E-18
   43.32150        8.2507387E-18
   43.48300        8.2462578E-18
   43.64450        8.2385146E-18
   43.80600        8.2302080E-18
   43.96750        8.2243847E-18
   44.12900        8.2234971E-18
   44.29050        8.2286290E-18
   44.45200        8.2391300E-18
   44.61350        8.2527901E-18
   44.77500        8.2664766E-18
   44.93650        8.2770695E-18
   45.09800        8.2823833E-18
   45.25950        8.2818100E-18
   45.42100        8.2764706E-18
   45.58250        8.2688498E-18
   45.74400        8.2620247E-18
   45.90550        8.2587259E-18
   46.06700        8.2605192E-18
   46.22850        8.2673567E-18
   46.39000        8.2776270E-18
   46.55150        8.2886922E-18
   46.71300        8.2977349E-18
   46.87450        8.3026682E-18
   47.03600        8.3028014E-18
   47.19750        8.2990700E-18
   47.35900        8.2937578E-18
   47.52050        8.2897750E-18
   47.68200        8.2897510E-18
   47.84350        8.2952013E-18
   48.00500        8.3060390E-18
   48.16650        8.3205717E-18
   48.32800        8.3359920E-18
   48.48950        8.3492005E-18
   48.65100        8.3577237E-18
   48.81250        8.3604476E-18
   48.97400        8.3579380E-18
   49.13550        8.3522552E-18
   49.29700        8.3463161E-18
   49.45850        8.3429958E-18
   49.62000        8.3442473E-18
   49.78150        8.3505124E-18
   49.94300        8.3606048E-18
   50.10450        8.3720877E-18
   50.26600        8.3820461E-18
   50.42750        8.3879861E-18
   50.58900        8.3886024E-18
   50.75050        8.3841827E-18
   50.91200        8.3765131E-18
   51.07350        8.3683364E-18
   51.23500        8.3625123E-18
   51.39650        8.3611392E-18
   51.55800        8.3649144E-18
   51.71950        8.3729149E-18
   51.88100        8.3828915E-18
   52.04250        8.3919682E-18
   52.20400        8.3975434E-18
   52.36550        8.3981034E-18
   52.52700        8.3937011E-18
   52.68850        8.3859537E-18
   52.85000        8.3775579E-18
   53.01150        8.3714855E-18
   53.17300        8.3701025E-18
   53.33450        8.3744692E-18
   53.49600        8.3840363E-18
   53.65750        8.3968212E-18
   53.81900        8.4100106E-18
   53.98050        8.4208004E-18
   54.14200        8.4272226E-18
   54.30350        8.4287049E-18
   54.46500        8.4261870E-18
   54.62650        8.4217698E-18
   54.78800        8.4180103E-18
   54.94950        8.4170872E-18
   55.11100        8.4201064E-18
   55.27250        8.4267453E-18
   55.43400        8.4353554E-18
   55.59550        8.4434800E-18
   55.75700        8.4486218E-18
   55.91850        8.4490395E-18
   56.08000        8.4443155E-18
   56.24150        8.4355391E-18
   56.40300        8.4250231E-18
   56.56450        8.4156619E-18
   56.72600        8.4101033E-18
   56.88750        8.4100032E-18
   57.04900        8.4155809E-18
   57.21050        8.4256237E-18
   57.37200        8.4379065E-18
   57.53350        8.4499064E-18
   57.69500        8.4595728E-18
   57.85650        8.4659239E-18
   58.01800        8.4692905E-18
   58.17950        8.4711385E-18
   58.34100        8.4735398E-18
   58.50250        8.4784449E-18
   58.66400        8.4869955E-18
   58.82550        8.4990814E-18
   58.98700        8.5133048E-18
   59.14850        8.5273470E-18
   59.31000        8.5386463E-18
   59.47150        8.5451546E-18
   59.63300        8.5459536E-18
   59.79450        8.5415216E-18
   59.95600        8.5335831E-18
   60.11750        8.5245942E-18
   60.27900        8.5170230E-18
   60.44050        8.5126497E-18
   60.60200        8.5120855E-18
   60.76350        8.5146564E-18
   60.92500        8.5186840E-18
   61.08650        8.5220589E-18
   61.24800        8.5229621E-18
   61.40950        8.5204707E-18
   61.57100        8.5148814E-18
   61.73250        8.5076461E-18
   61.89400        8.5009194E-18
   62.05550        8.4968969E-18
   62.21700        8.4971210E-18
   62.37850        8.5020030E-18
   62.54000        8.5106884E-18
   62.70150        8.5213028E-18
   62.86300        8.5315111E-18
   63.02450        8.5392146E-18
   63.18600        8.5431751E-18
   63.34750        8.5433852E-18
   63.50900        8.5410625E-18
   63.67050        8.5382666E-18
   63.83200        8.5372484E-18
   63.99350        8.5397440E-18
   64.15500        8.5464243E-18
   64.31650        8.5566780E-18
   64.47800        8.5687921E-18
   64.63950        8.5804628E-18
   64.80100        8.5894881E-18
   64.96250        8.5944074E-18
   65.12400        8.5949136E-18
   65.28550        8.5919143E-18
   65.44700        8.5872299E-18
   65.60850        8.5830213E-18
   65.77000        8.5811113E-18
   65.93150        8.5824249E-18
   66.09300        8.5867005E-18
   66.25450        8.5925826E-18
   66.41600        8.5980660E-18
   66.57750        8.6011423E-18
   66.73900        8.6004557E-18
   66.90050        8.5957507E-18
   67.06200        8.5879843E-18
   67.22350        8.5790640E-18
   67.38500        8.5713067E-18
   67.54650        8.5667870E-18
   67.70800        8.5667547E-18
   67.86950        8.5713018E-18
   68.03100        8.5793676E-18
   68.19250        8.5890779E-18
   68.35400        8.5983208E-18
   68.51550        8.6053824E-18
   68.67700        8.6094455E-18
   68.83850        8.6107980E-18
   69.00000        8.6106880E-18
   69.16150        8.6108741E-18
   69.32300        8.6130289E-18
   69.48450        8.6181797E-18
   69.64600        8.6263630E-18
   69.80750        8.6365878E-18
   69.96900        8.6471261E-18
   70.13050        8.6560241E-18
   70.29200        8.6616878E-18
   70.45350        8.6633678E-18
   70.61500        8.6613991E-18
   70.77650        8.6571052E-18
   70.93800        8.6524101E-18
   71.09950        8.6492569E-18
   71.26100        8.6490336E-18
   71.42250        8.6521769E-18
   71.58400        8.6580788E-18
   71.74550        8.6653191E-18
   71.90700        8.6721400E-18
   72.06850        8.6769997E-18
   72.23000        8.6790511E-18
   72.39150        8.6783869E-18
   72.55300        8.6759922E-18
   72.71450        8.6734213E-18
   72.87600        8.6722972E-18
   73.03750        8.6737779E-18
   73.19900        8.6781727E-18
   73.36050        8.6848174E-18
   73.52200        8.6922736E-18
   73.68350        8.6987703E-18
   73.84500        8.7027681E-18
   74.00650        8.7034455E-18
   74.16800        8.7009673E-18
   74.32950        8.6964335E-18
   74.49100        8.6915598E-18
   74.65250        8.6881625E-18
   74.81400        8.6876224E-18
   74.97550        8.6904786E-18
   75.13700        8.6962763E-18
   75.29850        8.7037028E-18
   75.46000        8.7109886E-18
   75.62150        8.7164471E-18
   75.78300        8.7189874E-18
   75.94450        8.7184440E-18
   76.10600        8.7156059E-18
   76.26750        8.7119448E-18
   76.42900        8.7091274E-18
   76.59050        8.7084723E-18
   76.75200        8.7105220E-18
   76.91350        8.7148606E-18
   77.07500        8.7202389E-18
   77.23650        8.7249481E-18
   77.39800        8.7273502E-18
   77.55950        8.7263940E-18
   77.72100        8.7219644E-18
   77.88250        8.7149615E-18
   78.04400        8.7070661E-18
   78.20550        8.7002716E-18
   78.36700        8.6963045E-18
   78.52850        8.6961374E-18
   78.69000        8.6997290E-18
   78.85150        8.7060751E-18
   79.01300        8.7135479E-18
   79.17450        8.7204143E-18
   79.33600        8.7253567E-18
   79.49750        8.7278639E-18
   79.65900        8.7283585E-18
   79.82050        8.7280475E-18
   79.98200        8.7285347E-18
   80.14350        8.7313025E-18
   80.30500        8.7372325E-18
   80.46650        8.7463075E-18
   80.62800        8.7575861E-18
   80.78950        8.7694810E-18
   80.95100        8.7802327E-18
   81.11250        8.7884425E-18
   81.27400        8.7934808E-18
   81.43550        8.7956555E-18
   81.59700        8.7960914E-18
   81.75850        8.7963611E-18
   81.92000        8.7979947E-18
   82.08150        8.8020124E-18
   82.24300        8.8086124E-18
   82.40450        8.8171001E-18
   82.56600        8.8260957E-18
   82.72750        8.8339432E-18
   82.88900        8.8392107E-18
   83.05050        8.8411198E-18
   83.21200        8.8397756E-18
   83.37350        8.8361170E-18
   83.53500        8.8316023E-18
   83.69650        8.8277493E-18
   83.85800        8.8256755E-18
   84.01950        8.8257756E-18
   84.18100        8.8276442E-18
   84.34250        8.8302515E-18
   84.50400        8.8323062E-18
   84.66550        8.8327057E-18
   84.82700        8.8309182E-18
   84.98850        8.8271983E-18
   85.15000        8.8225455E-18
   85.31150        8.8184220E-18
   85.47300        8.8163135E-18
   85.63450        8.8172647E-18
   85.79600        8.8215404E-18
   85.95750        8.8285384E-18
   86.11900        8.8369566E-18
   86.28050        8.8451697E-18
   86.44200        8.8516912E-18
   86.60350        8.8555773E-18
   86.76500        8.8566567E-18
   86.92650        8.8555251E-18
   87.08800        8.8533116E-18
   87.24950        8.8512941E-18
   87.41100        8.8504669E-18
   87.57250        8.8512048E-18
   87.73400        8.8531230E-18
   87.89550        8.8552067E-18
   88.05700        8.8561488E-18
   88.21850        8.8548072E-18
   88.38000        8.8506167E-18
   88.54150        8.8438255E-18
   88.70300        8.8354784E-18
   88.86450        8.8271454E-18
   89.02600        8.8205007E-18
   89.18750        8.8168644E-18
   89.34900        8.8168412E-18
   89.51050        8.8201706E-18
   89.67200        8.8258170E-18
   89.83350        8.8322905E-18
   89.99500        8.8380981E-18
   90.15650        8.8422059E-18
   90.31800        8.8443425E-18
   90.47950        8.8450679E-18
   90.64100        8.8455642E-18
   90.80250        8.8472227E-18
   90.96400        8.8511692E-18
   91.12550        8.8578760E-18
   91.28700        8.8669799E-18
   91.44850        8.8773726E-18
   91.61000        8.8875106E-18
   91.77150        8.8958684E-18
   91.93300        8.9013840E-18
   92.09450        8.9037804E-18
   92.25600        8.9036596E-18
   92.41750        8.9023270E-18
   92.57900        8.9014022E-18
   92.74050        8.9023295E-18
   92.90200        8.9059410E-18
   93.06350        8.9122127E-18
   93.22500        8.9202926E-18
   93.38650        8.9287811E-18
   93.54800        8.9361728E-18
   93.70950        8.9413129E-18
   93.87100        8.9437316E-18
   94.03250        8.9437630E-18
   94.19400        8.9424230E-18
   94.35550        8.9410755E-18
   94.51700        8.9410068E-18
   94.67850        8.9430069E-18
   94.84000        8.9471089E-18
   95.00150        8.9525716E-18
   95.16300        8.9581063E-18
   95.32450        8.9622902E-18
   95.48600        8.9640281E-18
   95.64750        8.9628982E-18
   95.80900        8.9592867E-18
   95.97050        8.9542558E-18
   96.13200        8.9492166E-18
   96.29350        8.9454976E-18
   96.45500        8.9439557E-18
   96.61650        8.9447324E-18
   96.77800        8.9472355E-18
   96.93950        8.9503382E-18
   97.10100        8.9527569E-18
   97.26250        8.9534675E-18
   97.42400        8.9520613E-18
   97.58550        8.9488865E-18
   97.74700        8.9449525E-18
   97.90850        8.9416065E-18
   98.07000        8.9400961E-18
   98.23150        8.9411681E-18
   98.39300        8.9448367E-18
   98.55450        8.9503829E-18
   98.71600        8.9565884E-18
   98.87750        8.9621190E-18
   99.03900        8.9659356E-18
   99.20050        8.9676164E-18
   99.36200        8.9674799E-18
   99.52350        8.9664749E-18
   99.68500        8.9658719E-18
   99.84650        8.9668331E-18
   100.0080        8.9700061E-18
   100.1695        8.9752852E-18
   100.3310        8.9818116E-18
   100.4925        8.9882248E-18
   100.6540        8.9930811E-18
   100.8155        8.9953013E-18
   100.9770        8.9944998E-18
   101.1385        8.9911092E-18
   101.3000        8.9862519E-18
   101.4615        8.9814105E-18
   101.6230        8.9780000E-18
   101.7845        8.9769503E-18
   101.9460        8.9784516E-18
   102.1075        8.9819167E-18
   102.2690        8.9861932E-18
   102.4305        8.9899718E-18
   102.5920        8.9922325E-18
   102.7535        8.9926121E-18
   102.9150        8.9915393E-18
   103.0765        8.9901141E-18
   103.2380        8.9897567E-18
   103.3995        8.9917585E-18
   103.5610        8.9968713E-18
   103.7225        9.0050505E-18
   103.8840        9.0154465E-18
   104.0455        9.0266142E-18
   104.2070        9.0369052E-18
   104.3685        9.0449057E-18
   104.5300        9.0498158E-18
   104.6915        9.0516348E-18
   104.8530        9.0511021E-18
   105.0145        9.0494113E-18
   105.1760        9.0477925E-18
   105.3375        9.0470927E-18
   105.4990        9.0475121E-18
   105.6605        9.0485610E-18
   105.8220        9.0492583E-18
   105.9835        9.0484824E-18
   106.1450        9.0453788E-18
   106.3065        9.0396754E-18
   106.4680        9.0318263E-18
   106.6295        9.0229382E-18
   106.7910        9.0145018E-18
   106.9525        9.0079894E-18
   107.1140        9.0044665E-18
   107.2755        9.0042985E-18
   107.4370        9.0070870E-18
   107.5985        9.0118259E-18
   107.7600        9.0172414E-18
   107.9215        9.0222029E-18
   108.0830        9.0260650E-18
   108.2445        9.0288294E-18
   108.4060        9.0310934E-18
   108.5675        9.0338090E-18
   108.7290        9.0379234E-18
   108.8905        9.0440255E-18
   109.0520        9.0521038E-18
   109.2135        9.0614774E-18
   109.3750        9.0709594E-18
   109.5365        9.0791766E-18
   109.6980        9.0849751E-18
   109.8595        9.0877768E-18
   110.0210        9.0877586E-18
   110.1825        9.0858015E-18
   110.3440        9.0832116E-18
   110.5055        9.0813140E-18
   110.6670        9.0810526E-18
   110.8285        9.0827186E-18
   110.9900        9.0858925E-18
   111.1515        9.0896065E-18
   111.3130        9.0926687E-18
   111.4745        9.0940642E-18
   111.6360        9.0932999E-18
   111.7975        9.0905884E-18
   111.9590        9.0868222E-18
   112.1205        9.0833150E-18
   112.2820        9.0813976E-18
   112.4435        9.0819956E-18
   112.6050        9.0853267E-18
   112.7665        9.0908158E-18
   112.9280        9.0972712E-18
   113.0895        9.1032467E-18
   113.2510        9.1074786E-18
   113.4125        9.1092562E-18
   113.5740        9.1086259E-18
   113.7355        9.1063478E-18
   113.8970        9.1036570E-18
   114.0585        9.1018719E-18
   114.2200        9.1019729E-18
   114.3815        9.1042890E-18
   114.5430        9.1083761E-18
   114.7045        9.1131472E-18
   114.8660        9.1172054E-18
   115.0275        9.1192858E-18
   115.1890        9.1186521E-18
   115.3505        9.1153277E-18
   115.5120        9.1100809E-18
   115.6735        9.1041880E-18
   115.8350        9.0990463E-18
   115.9965        9.0957731E-18
   116.1580        9.0948856E-18
   116.3195        9.0961768E-18
   116.4810        9.0988031E-18
   116.6425        9.1015684E-18
   116.8040        9.1033195E-18
   116.9655        9.1033278E-18
   117.1270        9.1015419E-18
   117.2885        9.0986104E-18
   117.4500        9.0956846E-18
   117.6115        9.0940369E-18
   117.7730        9.0946548E-18
   117.9345        9.0979188E-18
   118.0960        9.1034758E-18
   118.2575        9.1103357E-18
   118.4190        9.1171549E-18
   118.5805        9.1226193E-18
   118.7420        9.1258205E-18