  -27.90000       -6.2823659E-19
  -27.73850       -6.4743054E-19
  -27.57700       -6.8072539E-19
  -27.41550       -7.1988505E-19
  -27.25400       -7.5595871E-19
  -27.09250       -7.8191269E-19
  -26.93100       -7.9466223E-19
  -26.76950       -7.9587255E-19
  -26.60800       -7.9128919E-19
  -26.44650       -7.8880548E-19
  -26.28500       -7.9587570E-19
  -26.12350       -8.1708927E-19
  -25.96200       -8.5265271E-19
  -25.80050       -8.9824866E-19
  -25.63900       -9.4630455E-19
  -25.47750       -9.8827476E-19
  -25.31600       -1.0172357E-18
  -25.15450       -1.0299980E-18
  -24.99300       -1.0280940E-18
  -24.83150       -1.0173300E-18
  -24.67000       -1.0060324E-18
  -24.50850       -1.0025233E-18
  -24.34700       -1.0125908E-18
  -24.18550       -1.0377567E-18
  -24.02400       -1.0748626E-18
  -23.86250       -1.1171034E-18
  -23.70100       -1.1561723E-18
  -23.53950       -1.1848446E-18
  -23.37800       -1.1992009E-18
  -23.21650       -1.1998071E-18
  -23.05500       -1.1915062E-18
  -22.89350       -1.1818964E-18
  -22.73200       -1.1789605E-18
  -22.57050       -1.1885780E-18
  -22.40900       -1.2126901E-18
  -22.24750       -1.2486814E-18
  -22.08600       -1.2901875E-18
  -21.92450       -1.3290744E-18
  -21.76300       -1.3579742E-18
  -21.60150       -1.3725816E-18
  -21.44000       -1.3729850E-18
  -21.27850       -1.3636303E-18
  -21.11700       -1.3519311E-18
  -20.95550       -1.3459732E-18
  -20.79400       -1.3520161E-18
  -20.63250       -1.3725695E-18
  -20.47100       -1.4056184E-18
  -20.30950       -1.4452397E-18
  -20.14800       -1.4834225E-18
  -19.98650       -1.5125366E-18
  -19.82500       -1.5276929E-18
  -19.66350       -1.5282570E-18
  -19.50200       -1.5180401E-18
  -19.34050       -1.5041060E-18
  -19.17900       -1.4945677E-18
  -19.01750       -1.4960698E-18
  -18.85600       -1.5117423E-18
  -18.69450       -1.5402530E-18
  -18.53300       -1.5762455E-18
  -18.37150       -1.6120106E-18
  -18.21000       -1.6398796E-18
  -18.04850       -1.6546059E-18
  -17.88700       -1.6550127E-18
  -17.72550       -1.6443881E-18
  -17.56400       -1.6294945E-18
  -17.40250       -1.6184932E-18
  -17.24100       -1.6184139E-18
  -17.07950       -1.6329583E-18
  -16.91800       -1.6613346E-18
  -16.75650       -1.6984751E-18
  -16.59500       -1.7365757E-18
  -16.43350       -1.7674662E-18
  -16.27200       -1.7850766E-18
  -16.11050       -1.7872585E-18
  -15.94900       -1.7764043E-18
  -15.78750       -1.7586995E-18
  -15.62600       -1.7422293E-18
  -15.46450       -1.7345118E-18
  -15.30300       -1.7402058E-18
  -15.14150       -1.7596915E-18
  -14.98000       -1.7889783E-18
  -14.81850       -1.8209659E-18
  -14.65700       -1.8476851E-18
  -14.49550       -1.8627959E-18
  -14.33400       -1.8635833E-18
  -14.17250       -1.8518072E-18
  -14.01100       -1.8331710E-18
  -13.84950       -1.8155727E-18
  -13.68800       -1.8066929E-18
  -13.52650       -1.8116463E-18
  -13.36500       -1.8314097E-18
  -13.20350       -1.8624964E-18
  -13.04200       -1.8979707E-18
  -12.88050       -1.9295181E-18
  -12.71900       -1.9499360E-18
  -12.55750       -1.9552879E-18
  -12.39600       -1.9460541E-18
  -12.23450       -1.9269216E-18
  -12.07300       -1.9052904E-18
  -11.91150       -1.8889637E-18
  -11.75000       -1.8837558E-18
  -11.58850       -1.8917579E-18
  -11.42700       -1.9107781E-18
  -11.26550       -1.9351090E-18
  -11.10400       -1.9573682E-18
  -10.94250       -1.9708507E-18
  -10.78100       -1.9716739E-18
  -10.61950       -1.9600529E-18
  -10.45800       -1.9403161E-18
  -10.29650       -1.9196347E-18
  -10.13500       -1.9058442E-18
  -9.973500       -1.9050400E-18
  -9.812000       -1.9196931E-18
  -9.650500       -1.9478807E-18
  -9.489000       -1.9838601E-18
  -9.327500       -2.0197989E-18
  -9.166000       -2.0481029E-18
  -9.004500       -2.0636330E-18
  -8.843000       -2.0651350E-18
  -8.681500       -2.0554787E-18
  -8.520000       -2.0406413E-18
  -8.358500       -2.0277580E-18
  -8.197000       -2.0228232E-18
  -8.035500       -2.0287574E-18
  -7.874000       -2.0444369E-18
  -7.712500       -2.0650092E-18
  -7.551000       -2.0834064E-18
  -7.389500       -2.0925841E-18
  -7.228000       -2.0877803E-18
  -7.066500       -2.0680688E-18
  -6.905000       -2.0367331E-18
  -6.743500       -2.0003502E-18
  -6.582000       -1.9668790E-18
  -6.420500       -1.9433469E-18
  -6.259000       -1.9338310E-18
  -6.097500       -1.9383387E-18
  -5.936000       -1.9529139E-18
  -5.774500       -1.9709437E-18
  -5.613000       -1.9852748E-18
  -5.451500       -1.9904912E-18
  -5.290000       -1.9846526E-18
  -5.128500       -1.9699300E-18
  -4.967000       -1.9519401E-18
  -4.805500       -1.9379818E-18
  -4.644000       -1.9347318E-18
  -4.482500       -1.9461353E-18
  -4.321000       -1.9721371E-18
  -4.159500       -2.0086363E-18
  -3.998000       -2.0486671E-18
  -3.836500       -2.0844424E-18
  -3.675000       -2.1096416E-18
  -3.513500       -2.1212633E-18
  -3.352000       -2.1204758E-18
  -3.190500       -2.1121945E-18
  -3.029000       -2.1034978E-18
  -2.867500       -2.1013614E-18
  -2.706000       -2.1104142E-18
  -2.544500       -2.1314314E-18
  -2.383000       -2.1610383E-18
  -2.221500       -2.1927154E-18
  -2.060000       -2.2187883E-18
  -1.898500       -2.2327644E-18
  -1.737000       -2.2313046E-18
  -1.575500       -2.2152441E-18
  -1.414000       -2.1893674E-18
  -1.252500       -2.1610091E-18
  -1.091000       -2.1378940E-18
 -0.9295000       -2.1258655E-18
 -0.7680000       -2.1271756E-18
 -0.6065000       -2.1398728E-18
 -0.4450000       -2.1584955E-18
 -0.2835000       -2.1758517E-18
 -0.1220000       -2.1853394E-18
  3.9500002E-02   -2.1830572E-18
  0.2010000       -2.1690442E-18
  0.3625000       -2.1472695E-18
  0.5240000       -2.1243861E-18
  0.6855000       -2.1076688E-18
  0.8470000       -2.1027630E-18
   1.008500       -2.1119348E-18
   1.170000       -2.1333400E-18
   1.331500       -2.1615251E-18
   1.493000       -2.1890280E-18
   1.654500       -2.2085946E-18
   1.816000       -2.2153539E-18
   1.977500       -2.2082730E-18
   2.139000       -2.1904299E-18
   2.300500       -2.1680243E-18
   2.462000       -2.1484296E-18
   2.623500       -2.1379285E-18
   2.785000       -2.1398248E-18
   2.946500       -2.1535261E-18
   3.108000       -2.1748419E-18
   3.269500       -2.1973772E-18
   3.431000       -2.2145912E-18
   3.592500       -2.2218785E-18
   3.754000       -2.2180590E-18
   3.915500       -2.2058001E-18
   4.077000       -2.1908458E-18
   4.238500       -2.1802477E-18
   4.400000       -2.1801575E-18
   4.561500       -2.1938674E-18
   4.723000       -2.2207252E-18
   4.884500       -2.2562776E-18
   5.046000       -2.2935892E-18
   5.207500       -2.3253069E-18
   5.369000       -2.3458211E-18
   5.530500       -2.3528633E-18
   5.692000       -2.3480810E-18
   5.853500       -2.3364335E-18
   6.015000       -2.3246083E-18
   6.176500       -2.3189386E-18
   6.338000       -2.3234343E-18
   6.499500       -2.3385372E-18
   6.661000       -2.3609939E-18
   6.822500       -2.3849069E-18
   6.984000       -2.4036452E-18
   7.145500       -2.4120043E-18
   7.307000       -2.4079226E-18
   7.468500       -2.3931909E-18
   7.630000       -2.3729409E-18
   7.791500       -2.3540888E-18
   7.953000       -2.3432341E-18
   8.114500       -2.3446503E-18
   8.276000       -2.3589853E-18
   8.437500       -2.3830352E-18
   8.599000       -2.4106771E-18
   8.760500       -2.4346742E-18
   8.922000       -2.4488419E-18
   9.083500       -2.4499051E-18
   9.245000       -2.4384759E-18
   9.406500       -2.4188229E-18
   9.568000       -2.3974999E-18
   9.729500       -2.3812725E-18
   9.891000       -2.3750018E-18
   10.05250       -2.3801572E-18
   10.21400       -2.3944073E-18
   10.37550       -2.4124032E-18
   10.53700       -2.4274817E-18
   10.69850       -2.4337684E-18
   10.86000       -2.4280503E-18
   11.02150       -2.4108537E-18
   11.18300       -2.3863923E-18
   11.34450       -2.3613825E-18
   11.50600       -2.3430565E-18
   11.66750       -2.3369889E-18
   11.82900       -2.3454082E-18
   11.99050       -2.3665414E-18
   12.15200       -2.3952003E-18
   12.31350       -2.4244076E-18
   12.47500       -2.4475445E-18
   12.63650       -2.4603298E-18
   12.79800       -2.4620456E-18
   12.95950       -2.4556519E-18
   13.12100       -2.4467914E-18
   13.28250       -2.4419892E-18
   13.44400       -2.4465893E-18
   13.60550       -2.4630345E-18
   13.76700       -2.4900293E-18
   13.92850       -2.5228514E-18
   14.09000       -2.5547477E-18
   14.25150       -2.5789876E-18
   14.41300       -2.5909220E-18
   14.57450       -2.5893857E-18
   14.73600       -2.5770014E-18
   14.89750       -2.5593038E-18
   15.05900       -2.5429937E-18
   15.22050       -2.5338732E-18
   15.38200       -2.5351082E-18
   15.54350       -2.5463210E-18
   15.70500       -2.5637669E-18
   15.86650       -2.5815380E-18
   16.02800       -2.5934341E-18
   16.18950       -2.5949404E-18
   16.35100       -2.5847097E-18
   16.51250       -2.5650683E-18
   16.67400       -2.5413731E-18
   16.83550       -2.5204015E-18
   16.99700       -2.5083007E-18
   17.15850       -2.5087404E-18
   17.32000       -2.5218597E-18
   17.48150       -2.5443098E-18
   17.64300       -2.5703550E-18
   17.80450       -2.5936658E-18
   17.96600       -2.6092511E-18
   18.12750       -2.6149541E-18
   18.28900       -2.6120711E-18
   18.45050       -2.6048991E-18
   18.61200       -2.5993396E-18
   18.77350       -2.6009693E-18
   18.93500       -2.6131829E-18
   19.09650       -2.6360083E-18
   19.25800       -2.6659814E-18
   19.41950       -2.6971438E-18
   19.58100       -2.7228255E-18
   19.74250       -2.7376485E-18
   19.90400       -2.7391160E-18
   20.06550       -2.7283155E-18
   20.22700       -2.7095523E-18
   20.38850       -2.6890459E-18
   20.55000       -2.6730821E-18
   20.71150       -2.6661698E-18
   20.87300       -2.6697401E-18
   21.03450       -2.6817865E-18
   21.19600       -2.6975756E-18
   21.35750       -2.7112269E-18
   21.51900       -2.7176634E-18
   21.68050       -2.7143144E-18
   21.84200       -2.7019975E-18
   22.00350       -2.6847063E-18
   22.16500       -2.6683717E-18
   22.32650       -2.6590174E-18
   22.48800       -2.6608895E-18
   22.64950       -2.6751356E-18
   22.81100       -2.6994094E-18
   22.97250       -2.7285088E-18
   23.13400       -2.7558602E-18
   23.29550       -2.7754116E-18
   23.45700       -2.7833922E-18
   23.61850       -2.7793953E-18
   23.78000       -2.7664433E-18
   23.94150       -2.7500025E-18
   24.10300       -2.7362442E-18
   24.26450       -2.7301214E-18
   24.42600       -2.7338627E-18
   24.58750       -2.7463670E-18
   24.74900       -2.7636534E-18
   24.91050       -2.7801962E-18
   25.07200       -2.7907124E-18
   25.23350       -2.7918419E-18
   25.39500       -2.7832396E-18
   25.55650       -2.7677368E-18
   25.71800       -2.7505358E-18
   25.87950       -2.7376496E-18
   26.04100       -2.7340635E-18
   26.20250       -2.7421745E-18
   26.36400       -2.7610211E-18
   26.52550       -2.7865610E-18
   26.68700       -2.8129056E-18
   26.84850       -2.8341148E-18
   27.01000       -2.8459745E-18
   27.17150       -2.8471983E-18
   27.33300       -2.8397156E-18
   27.49450       -2.8279909E-18
   27.65600       -2.8176051E-18
   27.81750       -2.8135320E-18
   27.97900       -2.8186210E-18
   28.14050       -2.8327284E-18
   28.30200       -2.8527660E-18
   28.46350       -2.8736745E-18
   28.62500       -2.8900369E-18
   28.78650       -2.8978238E-18
   28.94800       -2.8957116E-18
   29.10950       -2.8855290E-18
   29.27100       -2.8716950E-18
   29.43250       -2.8598355E-18
   29.59400       -2.8550346E-18
   29.75550       -2.8602762E-18
   29.91700       -2.8755447E-18
   30.07850       -2.8978319E-18
   30.24000       -2.9220331E-18
   30.40150       -2.9424605E-18
   30.56300       -2.9545403E-18
   30.72450       -2.9561826E-18
   30.88600       -2.9484154E-18
   31.04750       -2.9350587E-18
   31.20900       -2.9215252E-18
   31.37050       -2.9131175E-18
   31.53200       -2.9133636E-18
   31.69350       -2.9229293E-18
   31.85500       -2.9394428E-18
   32.01650       -2.9582758E-18
   32.17800       -2.9740030E-18
   32.33950       -2.9820843E-18
   32.50100       -2.9802581E-18
   32.66250       -2.9692364E-18
   32.82400       -2.9525087E-18
   32.98550       -2.9353038E-18
   33.14700       -2.9230081E-18
   33.30850       -2.9195168E-18
   33.47000       -2.9260238E-18
   33.63150       -2.9406498E-18
   33.79300       -2.9590412E-18
   33.95450       -2.9757560E-18
   34.11600       -2.9859808E-18
   34.27750       -2.9870414E-18
   34.43900       -2.9792186E-18
   34.60050       -2.9656555E-18
   34.76200       -2.9514021E-18
   34.92350       -2.9419067E-18
   35.08500       -2.9414069E-18
   35.24650       -2.9516815E-18
   35.40800       -2.9715295E-18
   35.56950       -2.9971353E-18
   35.73100       -3.0232248E-18
   35.89250       -3.0446732E-18
   36.05400       -3.0580654E-18
   36.21550       -3.0627018E-18
   36.37700       -3.0607238E-18
   36.53850       -3.0563240E-18
   36.70000       -3.0543133E-18
   36.86150       -3.0585185E-18
   37.02300       -3.0705255E-18
   37.18450       -3.0891422E-18
   37.34600       -3.1107279E-18
   37.50750       -3.1302653E-18
   37.66900       -3.1428560E-18
   37.83050       -3.1452006E-18
   37.99200       -3.1366290E-18
   38.15350       -3.1193550E-18
   38.31500       -3.0978656E-18
   38.47650       -3.0776144E-18
   38.63800       -3.0634156E-18
   38.79950       -3.0580572E-18
   38.96100       -3.0615716E-18
   39.12250       -3.0713847E-18
   39.28400       -3.0832704E-18
   39.44550       -3.0927843E-18
   39.60700       -3.0967136E-18
   39.76850       -3.0941013E-18
   39.93000       -3.0865502E-18
   40.09150       -3.0777203E-18
   40.25300       -3.0721763E-18
   40.41450       -3.0739248E-18
   40.57600       -3.0850782E-18
   40.73750       -3.1050805E-18
   40.89900       -3.1307492E-18
   41.06050       -3.1571524E-18
   41.22200       -3.1790497E-18
   41.38350       -3.1924428E-18
   41.54500       -3.1957350E-18
   41.70650       -3.1901476E-18
   41.86800       -3.1792790E-18
   42.02950       -3.1679733E-18
   42.19100       -3.1608482E-18
   42.35250       -3.1609301E-18
   42.51400       -3.1687798E-18
   42.67550       -3.1823667E-18
   42.83700       -3.1977268E-18
   42.99850       -3.2102290E-18
   43.16000       -3.2160656E-18
   43.32150       -3.2135073E-18
   43.48300       -3.2035107E-18
   43.64450       -3.1894655E-18
   43.80600       -3.1761552E-18
   43.96750       -3.1682732E-18
   44.12900       -3.1689674E-18
   44.29050       -3.1788760E-18
   44.45200       -3.1959322E-18
   44.61350       -3.2159802E-18
   44.77500       -3.2339947E-18
   44.93650       -3.2455469E-18
   45.09800       -3.2480951E-18
   45.25950       -3.2417179E-18
   45.42100       -3.2290842E-18
   45.58250       -3.2146369E-18
   45.74400       -3.2032408E-18
   45.90550       -3.1987002E-18
   46.06700       -3.2026165E-18
   46.22850       -3.2139528E-18
   46.39000       -3.2294341E-18
   46.55150       -3.2446321E-18
   46.71300       -3.2553821E-18
   46.87450       -3.2590773E-18
   47.03600       -3.2554566E-18
   47.19750       -3.2466663E-18
   47.35900       -3.2365956E-18
   47.52050       -3.2296868E-18
   47.68200       -3.2295714E-18
   47.84350       -3.2379383E-18
   48.00500       -3.2539891E-18
   48.16650       -3.2746567E-18
   48.32800       -3.2955395E-18
   48.48950       -3.3122568E-18
   48.65100       -3.3217836E-18
   48.81250       -3.3233447E-18
   48.97400       -3.3185847E-18
   49.13550       -3.3109957E-18
   49.29700       -3.3047964E-18
   49.45850       -3.3036307E-18
   49.62000       -3.3094653E-18
   49.78150       -3.3220140E-18
   49.94300       -3.3388366E-18
   50.10450       -3.3560924E-18
   50.26600       -3.3697285E-18
   50.42750       -3.3767479E-18
   50.58900       -3.3761633E-18
   50.75050       -3.3693176E-18
   50.91200       -3.3594507E-18
   51.07350       -3.3506558E-18
   51.23500       -3.3465620E-18
   51.39650       -3.3491838E-18
   51.55800       -3.3583022E-18
   51.71950       -3.3715619E-18
   51.88100       -3.3852230E-18
   52.04250       -3.3953338E-18
   52.20400       -3.3989633E-18
   52.36550       -3.3951289E-18
   52.52700       -3.3851564E-18
   52.68850       -3.3723407E-18
   52.85000       -3.3609957E-18
   53.01150       -3.3551614E-18
   53.17300       -3.3573598E-18
   53.33450       -3.3678030E-18
   53.49600       -3.3843162E-18
   53.65750       -3.4030039E-18
   53.81900       -3.4194431E-18
   53.98050       -3.4300241E-18
   54.14200       -3.4330088E-18
   54.30350       -3.4290038E-18
   54.46500       -3.4207144E-18
   54.62650       -3.4120702E-18
   54.78800       -3.4069805E-18
   54.94950       -3.4080896E-18
   55.11100       -3.4158982E-18
   55.27250       -3.4285371E-18
   55.43400       -3.4422823E-18
   55.59550       -3.4526810E-18
   55.75700       -3.4559424E-18
   55.91850       -3.4501540E-18
   56.08000       -3.4359362E-18
   56.24150       -3.4163246E-18
   56.40300       -3.3959302E-18
   56.56450       -3.3796505E-18
   56.72600       -3.3713175E-18
   56.88750       -3.3726770E-18
   57.04900       -3.3829805E-18
   57.21050       -3.3992905E-18
   57.37200       -3.4174103E-18
   57.53350       -3.4331788E-18
   57.69500       -3.4437376E-18
   57.85650       -3.4483880E-18
   58.01800       -3.4487548E-18
   58.17950       -3.4481975E-18
   58.34100       -3.4506489E-18
   58.50250       -3.4592722E-18
   58.66400       -3.4753741E-18
   58.82550       -3.4979144E-18
   58.98700       -3.5237514E-18
   59.14850       -3.5485258E-18
   59.31000       -3.5679013E-18
   59.47150       -3.5787891E-18
   59.63300       -3.5802168E-18
   59.79450       -3.5735811E-18
   59.95600       -3.5622202E-18
   60.11750       -3.5504077E-18
   60.27900       -3.5420767E-18
   60.44050       -3.5396514E-18
   60.60200       -3.5433700E-18
   60.76350       -3.5513163E-18
   60.92500       -3.5601390E-18
   61.08650       -3.5662201E-18
   61.24800       -3.5668901E-18
   61.40950       -3.5613128E-18
   61.57100       -3.5507663E-18
   61.73250       -3.5382568E-18
   61.89400       -3.5275961E-18
   62.05550       -3.5222277E-18
   62.21700       -3.5241459E-18
   62.37850       -3.5332462E-18
   62.54000       -3.5473078E-18
   62.70150       -3.5626479E-18
   62.86300       -3.5752458E-18
   63.02450       -3.5820031E-18
   63.18600       -3.5817074E-18
   63.34750       -3.5754051E-18
   63.50900       -3.5660459E-18
   63.67050       -3.5575334E-18
   63.83200       -3.5534922E-18
   63.99350       -3.5561400E-18
   64.15500       -3.5656021E-18
   64.31650       -3.5798627E-18
   64.47800       -3.5953616E-18
   64.63950       -3.6080717E-18
   64.80100       -3.6147383E-18
   64.96250       -3.6139190E-18
   65.12400       -3.6064736E-18
   65.28550       -3.5953422E-18
   65.44700       -3.5846476E-18
   65.60850       -3.5784040E-18
   65.77000       -3.5792465E-18
   65.93150       -3.5875973E-18
   66.09300       -3.6015390E-18
   66.25450       -3.6174076E-18
   66.41600       -3.6309254E-18
   66.57750       -3.6385036E-18
   66.73900       -3.6383444E-18
   66.90050       -3.6310098E-18
   67.06200       -3.6193060E-18
   67.22350       -3.6074910E-18
   67.38500       -3.6000249E-18
   67.54650       -3.6002288E-18
   67.70800       -3.6092578E-18
   67.86950       -3.6257266E-18
   68.03100       -3.6461092E-18
   68.19250       -3.6658089E-18
   68.35400       -3.6805377E-18
   68.51550       -3.6875856E-18
   68.67700       -3.6865839E-18
   68.83850       -3.6795438E-18
   69.00000       -3.6701913E-18
   69.16150       -3.6628070E-18
   69.32300       -3.6609116E-18
   69.48450       -3.6661968E-18
   69.64600       -3.6780011E-18
   69.80750       -3.6935107E-18
   69.96900       -3.7086279E-18
   70.13050       -3.7192547E-18
   70.29200       -3.7225903E-18
   70.45350       -3.7180238E-18
   70.61500       -3.7073379E-18
   70.77650       -3.6941655E-18
   70.93800       -3.6828885E-18
   71.09950       -3.6773278E-18
   71.26100       -3.6796323E-18
   71.42250       -3.6896850E-18
   71.58400       -3.7051847E-18
   71.74550       -3.7223636E-18
   71.90700       -3.7371305E-18
   72.06850       -3.7463026E-18
   72.23000       -3.7485509E-18
   72.39150       -3.7447662E-18
   72.55300       -3.7377198E-18
   72.71450       -3.7311173E-18
   72.87600       -3.7283570E-18
   73.03750       -3.7314080E-18
   73.19900       -3.7401716E-18
   73.36050       -3.7525251E-18
   73.52200       -3.7650189E-18
   73.68350       -3.7739814E-18
   73.84500       -3.7766900E-18
   74.00650       -3.7722463E-18
   74.16800       -3.7619070E-18
   74.32950       -3.7487664E-18
   74.49100       -3.7368769E-18
   74.65250       -3.7300552E-18
   74.81400       -3.7307372E-18
   74.97550       -3.7392323E-18
   75.13700       -3.7536414E-18
   75.29850       -3.7704625E-18
   75.46000       -3.7857000E-18
   75.62150       -3.7961134E-18
   75.78300       -3.8001984E-18
   75.94450       -3.7985978E-18
   76.10600       -3.7938271E-18
   76.26750       -3.7894145E-18
   76.42900       -3.7887345E-18
   76.59050       -3.7938813E-18
   76.75200       -3.8049295E-18
   76.91350       -3.8198134E-18
   77.07500       -3.8348726E-18
   77.23650       -3.8459312E-18
   77.39800       -3.8495795E-18
   77.55950       -3.8442611E-18
   77.72100       -3.8308082E-18
   77.88250       -3.8122492E-18
   78.04400       -3.7929391E-18
   78.20550       -3.7772930E-18
   78.36700       -3.7685249E-18
   78.52850       -3.7677552E-18
   78.69000       -3.7737638E-18
   78.85150       -3.7834307E-18
   79.01300       -3.7927335E-18
   79.17450       -3.7980192E-18
   79.33600       -3.7971548E-18
   79.49750       -3.7902301E-18
   79.65900       -3.7795735E-18
   79.82050       -3.7690596E-18
   79.98200       -3.7629170E-18
   80.14350       -3.7644063E-18
   80.30500       -3.7747978E-18
   80.46650       -3.7929685E-18
   80.62800       -3.8157341E-18
   80.78950       -3.8388063E-18
   80.95100       -3.8580502E-18
   81.11250       -3.8706804E-18
   81.27400       -3.8760286E-18
   81.43550       -3.8756840E-18
   81.59700       -3.8729622E-18
   81.75850       -3.8718649E-18
   81.92000       -3.8758267E-18
   82.08150       -3.8866326E-18
   82.24300       -3.9038429E-18
   82.40450       -3.9249149E-18
   82.56600       -3.9459853E-18
   82.72750       -3.9630608E-18
   82.88900       -3.9732330E-18
   83.05050       -3.9755293E-18
   83.21200       -3.9711485E-18
   83.37350       -3.9630314E-18
   83.53500       -3.9549143E-18
   83.69650       -3.9501696E-18
   83.85800       -3.9507825E-18
   84.01950       -3.9567635E-18
   84.18100       -3.9661726E-18
   84.34250       -3.9757568E-18
   84.50400       -3.9820016E-18
   84.66550       -3.9822845E-18
   84.82700       -3.9757431E-18
   84.98850       -3.9635881E-18
   85.15000       -3.9487522E-18
   85.31150       -3.9349925E-18
   85.47300       -3.9257409E-18
   85.63450       -3.9230695E-18
   85.79600       -3.9270846E-18
   85.95750       -3.9359218E-18
   86.11900       -3.9463360E-18
   86.28050       -3.9546934E-18
   86.44200       -3.9580861E-18
   86.60350       -3.9552203E-18
   86.76500       -3.9468187E-18
   86.92650       -3.9353916E-18
   87.08800       -3.9244393E-18
   87.24950       -3.9173330E-18
   87.41100       -3.9162349E-18
   87.57250       -3.9214077E-18
   87.73400       -3.9311386E-18
   87.89550       -3.9422965E-18
   88.05700       -3.9513285E-18
   88.21850       -3.9553874E-18
   88.38000       -3.9532330E-18
   88.54150       -3.9456536E-18
   88.70300       -3.9352696E-18
   88.86450       -3.9257913E-18
   89.02600       -3.9209242E-18
   89.18750       -3.9232502E-18
   89.34900       -3.9334246E-18
   89.51050       -3.9499384E-18
   89.67200       -3.9695450E-18
   89.83350       -3.9882195E-18
   89.99500       -4.0023576E-18
   90.15650       -4.0098271E-18
   90.31800       -4.0105525E-18
   90.47950       -4.0064613E-18
   90.64100       -4.0008245E-18
   90.80250       -3.9972113E-18
   90.96400       -3.9983727E-18
   91.12550       -4.0053922E-18
   91.28700       -4.0173437E-18
   91.44850       -4.0315679E-18
   91.61000       -4.0444880E-18
   91.77150       -4.0527267E-18
   91.93300       -4.0541813E-18
   92.09450       -4.0487128E-18
   92.25600       -4.0382366E-18
   92.41750       -4.0261701E-18
   92.57900       -4.0164284E-18
   92.74050       -4.0122764E-18
   92.90200       -4.0153977E-18
   93.06350       -4.0254480E-18
   93.22500       -4.0402103E-18
   93.38650       -4.0562940E-18
   93.54800       -4.0701571E-18
   93.70950       -4.0791535E-18
   93.87100       -4.0822980E-18
   94.03250       -4.0805080E-18
   94.19400       -4.0762501E-18
   94.35550       -4.0727048E-18
   94.51700       -4.0727032E-18
   94.67850       -4.0777928E-18
   94.84000       -4.0877314E-18
   95.00150       -4.1005630E-18
   95.16300       -4.1132420E-18
   95.32450       -4.1225892E-18
   95.48600       -4.1262780E-18
   95.64750       -4.1235524E-18
   95.80900       -4.1154634E-18
   95.97050       -4.1045662E-18
   96.13200       -4.0941673E-18
   96.29350       -4.0873368E-18
   96.45500       -4.0859877E-18
   96.61650       -4.0903039E-18
   96.77800       -4.0987089E-18
   96.93950       -4.1083881E-18
   97.10100       -4.1162058E-18
   97.26250       -4.1197156E-18
   97.42400       -4.1179367E-18
   97.58550       -4.1116584E-18
   97.74700       -4.1031781E-18
   97.90850       -4.0955792E-18
   98.07000       -4.0917738E-18
   98.23150       -4.0936060E-18
   98.39300       -4.1012744E-18
   98.55450       -4.1132544E-18
   98.71600       -4.1267408E-18
   98.87750       -4.1384926E-18
   99.03900       -4.1458255E-18
   99.20050       -4.1474435E-18
   99.36200       -4.1438403E-18
   99.52350       -4.1371409E-18
   99.68500       -4.1304251E-18
   99.84650       -4.1267557E-18
   100.0080       -4.1282198E-18
   100.1695       -4.1352732E-18
   100.3310       -4.1465923E-18
   100.4925       -4.1594566E-18
   100.6540       -4.1705483E-18
   100.8155       -4.1769329E-18
   100.9770       -4.1769383E-18
   101.1385       -4.1706645E-18
   101.3000       -4.1599699E-18
   101.4615       -4.1479220E-18
   101.6230       -4.1378800E-18
   101.7845       -4.1324885E-18
   101.9460       -4.1329058E-18
   102.1075       -4.1385112E-18
   102.2690       -4.1471639E-18
   102.4305       -4.1559275E-18
   102.5920       -4.1620143E-18
   102.7535       -4.1636583E-18
   102.9150       -4.1606647E-18
   103.0765       -4.1544820E-18
   103.2380       -4.1477694E-18
   103.3995       -4.1436025E-18
   103.5610       -4.1445322E-18
   103.7225       -4.1517862E-18
   103.8840       -4.1648660E-18
   104.0455       -4.1816606E-18
   104.2070       -4.1990674E-18
   104.3685       -4.2139050E-18
   104.5300       -4.2238291E-18
   104.6915       -4.2279736E-18
   104.8530       -4.2271163E-18
   105.0145       -4.2233464E-18
   105.1760       -4.2193627E-18
   105.3375       -4.2176149E-18
   105.4990       -4.2195596E-18
   105.6605       -4.2252336E-18
   105.8220       -4.2332767E-18
   105.9835       -4.2413963E-18
   106.1450       -4.2471291E-18
   106.3065       -4.2486726E-18
   106.4680       -4.2455103E-18
   106.6295       -4.2386186E-18
   106.7910       -4.2301950E-18
   106.9525       -4.2229820E-18
   107.1140       -4.2194235E-18
   107.2755       -4.2209182E-18
   107.4370       -4.2273963E-18
   107.5985       -4.2373464E-18
   107.7600       -4.2482644E-18
   107.9215       -4.2573985E-18
   108.0830       -4.2625589E-18
   108.2445       -4.2627653E-18
   108.4060       -4.2585247E-18
   108.5675       -4.2516521E-18
   108.7290       -4.2446798E-18
   108.8905       -4.2400356E-18
   109.0520       -4.2392601E-18
   109.2135       -4.2425196E-18
   109.3750       -4.2485742E-18
   109.5365       -4.2551995E-18
   109.6980       -4.2599227E-18
   109.8595       -4.2608288E-18
   110.0210       -4.2571963E-18
   110.1825       -4.2497748E-18
   110.3440       -4.2406225E-18
   110.5055       -4.2325475E-18
   110.6670       -4.2283037E-18
   110.8285       -4.2297707E-18
   110.9900       -4.2373737E-18
   111.1515       -4.2499262E-18
   111.3130       -4.2649652E-18
   111.4745       -4.2794785E-18
   111.6360       -4.2907939E-18
   111.7975       -4.2973489E-18
   111.9590       -4.2991066E-18
   112.1205       -4.2974940E-18
   112.2820       -4.2949074E-18
   112.4435       -4.2939492E-18
   112.6050       -4.2966201E-18
   112.7665       -4.3037029E-18
   112.9280       -4.3145116E-18
   113.0895       -4.3270835E-18
   113.2510       -4.3387654E-18
   113.4125       -4.3470256E-18
   113.5740       -4.3502388E-18
   113.7355       -4.3482006E-18
   113.8970       -4.3421895E-18
   114.0585       -4.3345728E-18
   114.2200       -4.3280761E-18
   114.3815       -4.3249597E-18
   114.5430       -4.3263610E-18
   114.7045       -4.3319858E-18
   114.8660       -4.3402320E-18
   115.0275       -4.3486870E-18
   115.1890       -4.3548623E-18
   115.3505       -4.3569344E-18
   115.5120       -4.3542899E-18
   115.6735       -4.3477027E-18
   115.8350       -4.3390760E-18
   115.9965       -4.3308426E-18
   116.1580       -4.3251976E-18
   116.3195       -4.3234274E-18
   116.4810       -4.3255512E-18
   116.6425       -4.3303712E-18
   116.8040       -4.3359062E-18
   116.9655       -4.3400500E-18
   117.1270       -4.3412333E-18
   117.2885       -4.3389077E-18
   117.4500       -4.3337006E-18
   117.6115       -4.3272150E-18
   117.7730       -4.3215220E-18
   117.9345       -4.3184999E-18
   118.0960       -4.3192183E-18
   118.2575       -4.3235655E-18
   118.4190       -4.3302566E-18
   118.5805       -4.3372264E-18
   118.7420       -4.3422863E-18