  -27.90000        1.5857165E-18
  -27.73850        1.5785624E-18
  -27.57700        1.5682107E-18
  -27.41550        1.5591768E-18
  -27.25400        1.5530361E-18
  -27.09250        1.5476921E-18
  -26.93100        1.5399259E-18
  -26.76950        1.5287837E-18
  -26.60800        1.5166857E-18
  -26.44650        1.5072932E-18
  -26.28500        1.5021382E-18
  -26.12350        1.4991324E-18
  -25.96200        1.4943395E-18
  -25.80050        1.4854454E-18
  -25.63900        1.4738207E-18
  -25.47750        1.4633255E-18
  -25.31600        1.4568922E-18
  -25.15450        1.4539139E-18
  -24.99300        1.4507620E-18
  -24.83150        1.4440023E-18
  -24.67000        1.4334727E-18
  -24.50850        1.4224680E-18
  -24.34700        1.4148521E-18
  -24.18550        1.4116474E-18
  -24.02400        1.4101649E-18
  -23.86250        1.4064448E-18
  -23.70100        1.3987973E-18
  -23.53950        1.3892122E-18
  -23.37800        1.3813743E-18
  -23.21650        1.3771630E-18
  -23.05500        1.3749317E-18
  -22.89350        1.3711717E-18
  -22.73200        1.3639871E-18
  -22.57050        1.3550652E-18
  -22.40900        1.3482213E-18
  -22.24750        1.3458298E-18
  -22.08600        1.3464574E-18
  -21.92450        1.3459562E-18
  -21.76300        1.3410783E-18
  -21.60150        1.3323622E-18
  -21.44000        1.3236825E-18
  -21.27850        1.3188873E-18
  -21.11700        1.3185246E-18
  -20.95550        1.3195263E-18
  -20.79400        1.3180303E-18
  -20.63250        1.3127477E-18
  -20.47100        1.3058890E-18
  -20.30950        1.3009166E-18
  -20.14800        1.2992494E-18
  -19.98650        1.2989248E-18
  -19.82500        1.2964185E-18
  -19.66350        1.2899652E-18
  -19.50200        1.2813629E-18
  -19.34050        1.2745888E-18
  -19.17900        1.2724283E-18
  -19.01750        1.2741090E-18
  -18.85600        1.2760414E-18
  -18.69450        1.2749625E-18
  -18.53300        1.2706342E-18
  -18.37150        1.2656921E-18
  -18.21000        1.2628896E-18
  -18.04850        1.2623694E-18
  -17.88700        1.2615245E-18
  -17.72550        1.2575408E-18
  -17.56400        1.2501899E-18
  -17.40250        1.2422273E-18
  -17.24100        1.2369965E-18
  -17.07950        1.2354561E-18
  -16.91800        1.2353749E-18
  -16.75650        1.2334326E-18
  -16.59500        1.2283038E-18
  -16.43350        1.2219288E-18
  -16.27200        1.2178252E-18
  -16.11050        1.2179245E-18
  -15.94900        1.2207009E-18
  -15.78750        1.2222166E-18
  -15.62600        1.2191931E-18
  -15.46450        1.2115406E-18
  -15.30300        1.2022849E-18
  -15.14150        1.1950627E-18
  -14.98000        1.1913407E-18
  -14.81850        1.1896346E-18
  -14.65700        1.1872170E-18
  -14.49550        1.1826688E-18
  -14.33400        1.1769810E-18
  -14.17250        1.1723198E-18
  -14.01100        1.1697235E-18
  -13.84950        1.1679757E-18
  -13.68800        1.1647549E-18
  -13.52650        1.1590030E-18
  -13.36500        1.1522138E-18
  -13.20350        1.1473154E-18
  -13.04200        1.1460634E-18
  -12.88050        1.1473391E-18
  -12.71900        1.1479869E-18
  -12.55750        1.1455080E-18
  -12.39600        1.1402083E-18
  -12.23450        1.1348714E-18
  -12.07300        1.1322601E-18
  -11.91150        1.1326844E-18
  -11.75000        1.1337728E-18
  -11.58850        1.1325904E-18
  -11.42700        1.1281830E-18
  -11.26550        1.1223174E-18
  -11.10400        1.1178438E-18
  -10.94250        1.1161804E-18
  -10.78100        1.1161121E-18
  -10.61950        1.1149040E-18
  -10.45800        1.1106905E-18
  -10.29650        1.1040506E-18
  -10.13500        1.0974151E-18
  -9.973500        1.0928918E-18
  -9.812000        1.0904497E-18
  -9.650500        1.0880760E-18
  -9.489000        1.0837260E-18
  -9.327500        1.0772614E-18
  -9.166000        1.0705925E-18
  -9.004500        1.0658890E-18
  -8.843000        1.0635543E-18
  -8.681500        1.0618855E-18
  -8.520000        1.0587530E-18
  -8.358500        1.0536926E-18
  -8.197000        1.0483767E-18
  -8.035500        1.0449555E-18
  -7.874000        1.0438222E-18
  -7.712500        1.0429617E-18
  -7.551000        1.0396090E-18
  -7.389500        1.0327899E-18
  -7.228000        1.0244575E-18
  -7.066500        1.0181650E-18
  -6.905000        1.0163555E-18
  -6.743500        1.0185317E-18
  -6.582000        1.0217483E-18
  -6.420500        1.0229050E-18
  -6.259000        1.0209255E-18
  -6.097500        1.0171514E-18
  -5.936000        1.0138695E-18
  -5.774500        1.0123631E-18
  -5.613000        1.0121003E-18
  -5.451500        1.0115575E-18
  -5.290000        1.0097648E-18
  -5.128500        1.0071228E-18
  -4.967000        1.0048032E-18
  -4.805500        1.0033950E-18
  -4.644000        1.0021591E-18
  -4.482500        9.9967982E-19
  -4.321000        9.9534436E-19
  -4.159500        9.9019837E-19
  -3.998000        9.8622552E-19
  -3.836500        9.8457323E-19
  -3.675000        9.8432756E-19
  -3.513500        9.8306104E-19
  -3.352000        9.7879961E-19
  -3.190500        9.7172960E-19
  -3.029000        9.6414704E-19
  -2.867500        9.5865032E-19
  -2.706000        9.5612039E-19
  -2.544500        9.5514980E-19
  -2.383000        9.5331252E-19
  -2.221500        9.4911882E-19
  -2.060000        9.4305135E-19
  -1.898500        9.3694789E-19
  -1.737000        9.3240440E-19
  -1.575500        9.2956417E-19
  -1.414000        9.2721198E-19
  -1.252500        9.2396323E-19
  -1.091000        9.1948932E-19
 -0.9295000        9.1475908E-19
 -0.7680000        9.1115744E-19
 -0.6065000        9.0926981E-19
 -0.4450000        9.0839786E-19
 -0.2835000        9.0721116E-19
 -0.1220000        9.0492442E-19
  3.9500002E-02    9.0192931E-19
  0.2010000        8.9929050E-19
  0.3625000        8.9761463E-19
  0.5240000        8.9641418E-19
  0.6855000        8.9462882E-19
  0.8470000        8.9182323E-19
   1.008500        8.8885282E-19
   1.170000        8.8722689E-19
   1.331500        8.8764576E-19
   1.493000        8.8906685E-19
   1.654500        8.8926321E-19
   1.816000        8.8651790E-19
   1.977500        8.8106264E-19
   2.139000        8.7503839E-19
   2.300500        8.7096514E-19
   2.462000        8.6993117E-19
   2.623500        8.7087808E-19
   2.785000        8.7148317E-19
   2.946500        8.6989167E-19
   3.108000        8.6598386E-19
   3.269500        8.6127969E-19
   3.431000        8.5765452E-19
   3.592500        8.5590668E-19
   3.754000        8.5527792E-19
   3.915500        8.5420858E-19
   4.077000        8.5162008E-19
   4.238500        8.4762242E-19
   4.400000        8.4311046E-19
   4.561500        8.3875675E-19
   4.723000        8.3442284E-19
   4.884500        8.2956424E-19
   5.046000        8.2415546E-19
   5.207500        8.1908608E-19
   5.369000        8.1548278E-19
   5.530500        8.1353699E-19
   5.692000        8.1201731E-19
   5.853500        8.0911504E-19
   6.015000        8.0401506E-19
   6.176500        7.9780939E-19
   6.338000        7.9285743E-19
   6.499500        7.9101896E-19
   6.661000        7.9217971E-19
   6.822500        7.9429439E-19
   6.984000        7.9492476E-19
   7.145500        7.9305559E-19
   7.307000        7.8974645E-19
   7.468500        7.8714864E-19
   7.630000        7.8669813E-19
   7.791500        7.8797080E-19
   7.953000        7.8909960E-19
   8.114500        7.8837643E-19
   8.276000        7.8566070E-19
   8.437500        7.8238940E-19
   8.599000        7.8022286E-19
   8.760500        7.7955879E-19
   8.922000        7.7926799E-19
   9.083500        7.7784947E-19
   9.245000        7.7487721E-19
   9.406500        7.7131594E-19
   9.568000        7.6841470E-19
   9.729500        7.6629474E-19
   9.891000        7.6370226E-19
   10.05250        7.5926547E-19
   10.21400        7.5308002E-19
   10.37550        7.4702169E-19
   10.53700        7.4333086E-19
   10.69850        7.4266990E-19
   10.86000        7.4342180E-19
   11.02150        7.4295677E-19
   11.18300        7.3982491E-19
   11.34450        7.3497805E-19
   11.50600        7.3093655E-19
   11.66750        7.2959987E-19
   11.82900        7.3057770E-19
   11.99050        7.3147152E-19
   12.15200        7.2987972E-19
   12.31350        7.2540969E-19
   12.47500        7.1999067E-19
   12.63650        7.1623362E-19
   12.79800        7.1527657E-19
   12.95950        7.1596654E-19
   13.12100        7.1602837E-19
   13.28250        7.1411102E-19
   13.44400        7.1084717E-19
   13.60550        7.0803233E-19
   13.76700        7.0679492E-19
   13.92850        7.0654707E-19
   14.09000        7.0570356E-19
   14.25150        7.0341526E-19
   14.41300        7.0054996E-19
   14.57450        6.9889591E-19
   14.73600        6.9929115E-19
   14.89750        7.0051346E-19
   15.05900        7.0009253E-19
   15.22050        6.9642042E-19
   15.38200        6.9027452E-19
   15.54350        6.8434477E-19
   15.70500        6.8110894E-19
   15.86650        6.8085882E-19
   16.02800        6.8155629E-19
   16.18950        6.8059816E-19
   16.35100        6.7696120E-19
   16.51250        6.7194078E-19
   16.67400        6.6795538E-19
   16.83550        6.6651220E-19
   16.99700        6.6707174E-19
   17.15850        6.6767165E-19
   17.32000        6.6664709E-19
   17.48150        6.6389159E-19
   17.64300        6.6063922E-19
   17.80450        6.5812620E-19
   17.96600        6.5647023E-19
   18.12750        6.5481411E-19
   18.28900        6.5250757E-19
   18.45050        6.5008093E-19
   18.61200        6.4895457E-19
   18.77350        6.5007659E-19
   18.93500        6.5275753E-19
   19.09650        6.5487894E-19
   19.25800        6.5441329E-19
   19.41950        6.5098659E-19
   19.58100        6.4613797E-19
   19.74250        6.4206659E-19
   19.90400        6.3993200E-19
   20.06550        6.3912684E-19
   20.22700        6.3802235E-19
   20.38850        6.3547401E-19
   20.55000        6.3178597E-19
   20.71150        6.2839159E-19
   20.87300        6.2661749E-19
   21.03450        6.2659779E-19
   21.19600        6.2721146E-19
   21.35750        6.2701785E-19
   21.51900        6.2537227E-19
   21.68050        6.2280434E-19
   21.84200        6.2041519E-19
   22.00350        6.1888376E-19
   22.16500        6.1795986E-19
   22.32650        6.1683887E-19
   22.48800        6.1501396E-19
   22.64950        6.1277814E-19
   22.81100        6.1091248E-19
   22.97250        6.0988450E-19
   23.13400        6.0936080E-19
   23.29550        6.0853150E-19
   23.45700        6.0693959E-19
   23.61850        6.0501551E-19
   23.78000        6.0375618E-19
   23.94150        6.0378829E-19
   24.10300        6.0465042E-19
   24.26450        6.0498563E-19
   24.42600        6.0354479E-19
   24.58750        6.0020675E-19
   24.74900        5.9615739E-19
   24.91050        5.9303365E-19
   25.07200        5.9166601E-19
   25.23350        5.9139314E-19
   25.39500        5.9050801E-19
   25.55650        5.8753321E-19
   25.71800        5.8236974E-19
   25.87950        5.7643063E-19
   26.04100        5.7166054E-19
   26.20250        5.6921374E-19
   26.36400        5.6881059E-19
   26.52550        5.6919223E-19
   26.68700        5.6918081E-19
   26.84850        5.6839561E-19
   27.01000        5.6711125E-19
   27.17150        5.6558371E-19
   27.33300        5.6364661E-19
   27.49450        5.6101095E-19
   27.65600        5.5789843E-19
   27.81750        5.5525259E-19
   27.97900        5.5415378E-19
   28.14050        5.5489349E-19
   28.30200        5.5656915E-19
   28.46350        5.5766723E-19
   28.62500        5.5721078E-19
   28.78650        5.5553305E-19
   28.94800        5.5398555E-19
   29.10950        5.5379199E-19
   29.27100        5.5496038E-19
   29.43250        5.5617308E-19
   29.59400        5.5579025E-19
   29.75550        5.5318696E-19
   29.91700        5.4934031E-19
   30.07850        5.4614595E-19
   30.24000        5.4497011E-19
   30.40150        5.4560756E-19
   30.56300        5.4651420E-19
   30.72450        5.4611953E-19
   30.88600        5.4411419E-19
   31.04750        5.4162132E-19
   31.20900        5.4014232E-19
   31.37050        5.4022975E-19
   31.53200        5.4103542E-19
   31.69350        5.4107393E-19
   31.85500        5.3944744E-19
   32.01650        5.3645858E-19
   32.17800        5.3316076E-19
   32.33950        5.3037218E-19
   32.50100        5.2808017E-19
   32.66250        5.2569298E-19
   32.82400        5.2278146E-19
   32.98550        5.1954821E-19
   33.14700        5.1659249E-19
   33.30850        5.1423198E-19
   33.47000        5.1207278E-19
   33.63150        5.0930001E-19
   33.79300        5.0551127E-19
   33.95450        5.0135851E-19
   34.11600        4.9833429E-19
   34.27750        4.9770305E-19
   34.43900        4.9938388E-19
   34.60050        5.0177634E-19
   34.76200        5.0285054E-19
   34.92350        5.0174176E-19
   35.08500        4.9951809E-19
   35.24650        4.9839054E-19
   35.40800        4.9991327E-19
   35.56950        5.0366965E-19
   35.73100        5.0756748E-19
   35.89250        5.0951472E-19
   36.05400        5.0902767E-19
   36.21550        5.0742940E-19
   36.37700        5.0652963E-19
   36.53850        5.0698463E-19
   36.70000        5.0775127E-19
   36.86150        5.0702418E-19
   37.02300        5.0376716E-19
   37.18450        4.9852904E-19
   37.34600        4.9292996E-19
   37.50750        4.8835410E-19
   37.66900        4.8499445E-19
   37.83050        4.8200735E-19
   37.99200        4.7853241E-19
   38.15350        4.7460506E-19
   38.31500        4.7112325E-19
   38.47650        4.6892073E-19
   38.63800        4.6785325E-19
   38.79950        4.6682579E-19
   38.96100        4.6481672E-19
   39.12250        4.6196073E-19
   39.28400        4.5958212E-19
   39.44550        4.5902480E-19
   39.60700        4.6032322E-19
   39.76850        4.6202075E-19
   39.93000        4.6242477E-19
   40.09150        4.6117790E-19
   40.25300        4.5963837E-19
   40.41450        4.5963314E-19
   40.57600        4.6169525E-19
   40.73750        4.6444330E-19
   40.89900        4.6571514E-19
   41.06050        4.6446016E-19
   41.22200        4.6166615E-19
   41.38350        4.5947975E-19
   41.54500        4.5928578E-19
   41.70650        4.6042625E-19
   41.86800        4.6067937E-19
   42.02950        4.5810348E-19
   42.19100        4.5271414E-19
   42.35250        4.4660825E-19
   42.51400        4.4242195E-19
   42.67550        4.4135028E-19
   42.83700        4.4231860E-19
   42.99850        4.4294183E-19
   43.16000        4.4148004E-19
   43.32150        4.3816367E-19
   43.48300        4.3484497E-19
   43.64450        4.3335563E-19
   43.80600        4.3403278E-19
   43.96750        4.3565106E-19
   44.12900        4.3666740E-19
   44.29050        4.3651515E-19
   44.45200        4.3576112E-19
   44.61350        4.3513883E-19
   44.77500        4.3457810E-19
   44.93650        4.3327958E-19
   45.09800        4.3074655E-19
   45.25950        4.2765574E-19
   45.42100        4.2558476E-19
   45.58250        4.2570946E-19
   45.74400        4.2764809E-19
   45.90550        4.2954486E-19
   46.06700        4.2942562E-19
   46.22850        4.2673180E-19
   46.39000        4.2275216E-19
   46.55150        4.1957798E-19
   46.71300        4.1841670E-19
   46.87450        4.1864068E-19
   47.03600        4.1837826E-19
   47.19750        4.1618597E-19
   47.35900        4.1240343E-19
   47.52050        4.0897960E-19
   47.68200        4.0781832E-19
   47.84350        4.0903262E-19
   48.00500        4.1068031E-19
   48.16650        4.1033654E-19
   48.32800        4.0720884E-19
   48.48950        4.0291875E-19
   48.65100        4.0019980E-19
   48.81250        4.0059129E-19
   48.97400        4.0313068E-19
   49.13550        4.0515291E-19
   49.29700        4.0444407E-19
   49.45850        4.0087553E-19
   49.62000        3.9622833E-19
   49.78150        3.9256397E-19
   49.94300        3.9068593E-19
   50.10450        3.8994271E-19
   50.26600        3.8927034E-19
   50.42750        3.8830815E-19
   50.58900        3.8753740E-19
   50.75050        3.8747347E-19
   50.91200        3.8787450E-19
   51.07350        3.8787812E-19
   51.23500        3.8697931E-19
   51.39650        3.8585132E-19
   51.55800        3.8601076E-19
   51.71950        3.8840845E-19
   51.88100        3.9214999E-19
   52.04250        3.9471040E-19
   52.20400        3.9375718E-19
   52.36550        3.8921720E-19
   52.52700        3.8370758E-19
   52.68850        3.8073446E-19
   52.85000        3.8198211E-19
   53.01150        3.8596097E-19
   53.17300        3.8921073E-19
   53.33450        3.8908803E-19
   53.49600        3.8578582E-19
   53.65750        3.8192586E-19
   53.81900        3.8021628E-19
   53.98050        3.8122973E-19
   54.14200        3.8313021E-19
   54.30350        3.8335246E-19
   54.46500        3.8064285E-19
   54.62650        3.7579141E-19
   54.78800        3.7071891E-19
   54.94950        3.6696149E-19
   55.11100        3.6485505E-19
   55.27250        3.6383743E-19
   55.43400        3.6326640E-19
   55.59550        3.6286899E-19
   55.75700        3.6253532E-19
   55.91850        3.6191703E-19
   56.08000        3.6044982E-19
   56.24150        3.5790973E-19
   56.40300        3.5495034E-19
   56.56450        3.5293972E-19
   56.72600        3.5301158E-19
   56.88750        3.5503848E-19
   57.04900        3.5746199E-19
   57.21050        3.5829708E-19
   57.37200        3.5661816E-19
   57.53350        3.5332715E-19
   57.69500        3.5052513E-19
   57.85650        3.4994202E-19
   58.01800        3.5167336E-19
   58.17950        3.5419248E-19
   58.34100        3.5556328E-19
   58.50250        3.5485415E-19
   58.66400        3.5269112E-19
   58.82550        3.5065574E-19
   58.98700        3.5009238E-19
   59.14850        3.5119760E-19
   59.31000        3.5293977E-19
   59.47150        3.5376915E-19
   59.63300        3.5262404E-19
   59.79450        3.4962301E-19
   59.95600        3.4601198E-19
   60.11750        3.4335908E-19
   60.27900        3.4250134E-19
   60.44050        3.4297958E-19
   60.60200        3.4341029E-19
   60.76350        3.4255565E-19
   60.92500        3.4026359E-19
   61.08650        3.3753144E-19
   61.24800        3.3566309E-19
   61.40950        3.3525586E-19
   61.57100        3.3584288E-19
   61.73250        3.3639331E-19
   61.89400        3.3612554E-19
   62.05550        3.3491173E-19
   62.21700        3.3304000E-19
   62.37850        3.3075479E-19
   62.54000        3.2814415E-19
   62.70150        3.2547528E-19
   62.86300        3.2350894E-19
   63.02450        3.2323049E-19
   63.18600        3.2502478E-19
   63.34750        3.2797670E-19
   63.50900        3.3010186E-19
   63.67050        3.2960986E-19
   63.83200        3.2632598E-19
   63.99350        3.2203971E-19
   64.15500        3.1928226E-19
   64.31650        3.1936017E-19
   64.47800        3.2124231E-19
   64.63950        3.2233644E-19
   64.80100        3.2061228E-19
   64.96250        3.1632116E-19
   65.12400        3.1181274E-19
   65.28550        3.0957736E-19
   65.44700        3.1021263E-19
   65.60850        3.1206813E-19
   65.77000        3.1283343E-19
   65.93150        3.1159054E-19
   66.09300        3.0948851E-19
   66.25450        3.0851146E-19
   66.41600        3.0955593E-19
   66.57750        3.1160235E-19
   66.73900        3.1269891E-19
   66.90050        3.1178575E-19
   67.06200        3.0965168E-19
   67.22350        3.0818764E-19
   67.38500        3.0866025E-19
   67.54650        3.1061777E-19
   67.70800        3.1238949E-19
   67.86950        3.1266877E-19
   68.03100        3.1167734E-19
   68.19250        3.1083330E-19
   68.35400        3.1124570E-19
   68.51550        3.1247249E-19
   68.67700        3.1277294E-19
   68.83850        3.1068901E-19
   69.00000        3.0653646E-19
   69.16150        3.0235478E-19
   69.32300        3.0023485E-19
   69.48450        3.0045392E-19
   69.64600        3.0111615E-19
   69.80750        2.9972884E-19
   69.96900        2.9541256E-19
   70.13050        2.8980805E-19
   70.29200        2.8582293E-19
   70.45350        2.8524827E-19
   70.61500        2.8727882E-19
   70.77650        2.8921365E-19
   70.93800        2.8873039E-19
   71.09950        2.8579842E-19
   71.26100        2.8262156E-19
   71.42250        2.8171176E-19
   71.58400        2.8376726E-19
   71.74550        2.8713869E-19
   71.90700        2.8926979E-19
   72.06850        2.8881541E-19
   72.23000        2.8663755E-19
   72.39150        2.8489235E-19
   72.55300        2.8509211E-19
   72.71450        2.8685142E-19
   72.87600        2.8839076E-19
   73.03750        2.8826213E-19
   73.19900        2.8669002E-19
   73.36050        2.8529480E-19
   73.52200        2.8546838E-19
   73.68350        2.8695852E-19
   73.84500        2.8805153E-19
   74.00650        2.8723896E-19
   74.16800        2.8480193E-19
   74.32950        2.8270872E-19
   74.49100        2.8278358E-19
   74.65250        2.8479526E-19
   74.81400        2.8636915E-19
   74.97550        2.8503354E-19
   75.13700        2.8066983E-19
   75.29850        2.7607455E-19
   75.46000        2.7487899E-19
   75.62150        2.7844771E-19
   75.78300        2.8445725E-19
   75.94450        2.8852962E-19
   76.10600        2.8770745E-19
   76.26750        2.8286175E-19
   76.42900        2.7794951E-19
   76.59050        2.7669618E-19
   76.75200        2.7951092E-19
   76.91350        2.8326997E-19
   77.07500        2.8414742E-19
   77.23650        2.8100005E-19
   77.39800        2.7635660E-19
   77.55950        2.7415410E-19
   77.72100        2.7625178E-19
   77.88250        2.8082112E-19
   78.04400        2.8400013E-19
   78.20550        2.8326319E-19
   78.36700        2.7944953E-19
   78.52850        2.7570519E-19
   78.69000        2.7445773E-19
   78.85150        2.7533089E-19
   79.01300        2.7590100E-19
   79.17450        2.7441872E-19
   79.33600        2.7174080E-19
   79.49750        2.7050781E-19
   79.65900        2.7235664E-19
   79.82050        2.7596340E-19
   79.98200        2.7801184E-19
   80.14350        2.7634657E-19
   80.30500        2.7232352E-19
   80.46650        2.6990787E-19
   80.62800        2.7205249E-19
   80.78950        2.7759396E-19
   80.95100        2.8170375E-19
   81.11250        2.7985327E-19
   81.27400        2.7197797E-19
   81.43550        2.6305902E-19
   81.59700        2.5932309E-19
   81.75850        2.6310739E-19
   81.92000        2.7078551E-19
   82.08150        2.7563532E-19
   82.24300        2.7330807E-19
   82.40450        2.6529119E-19
   82.56600        2.5748920E-19
   82.72750        2.5524286E-19
   82.88900        2.5910629E-19
   83.05050        2.6486083E-19
   83.21200        2.6745841E-19
   83.37350        2.6522900E-19
   83.53500        2.6075936E-19
   83.69650        2.5803416E-19
   83.85800        2.5876554E-19
   84.01950        2.6127857E-19
   84.18100        2.6267345E-19
   84.34250        2.6188158E-19
   84.50400        2.6058097E-19
   84.66550        2.6119515E-19
   84.82700        2.6411830E-19
   84.98850        2.6705797E-19
   85.15000        2.6726138E-19
   85.31150        2.6447800E-19
   85.47300        2.6164780E-19
   85.63450        2.6236734E-19
   85.79600        2.6730861E-19
   85.95750        2.7300672E-19
   86.11900        2.7445341E-19
   86.28050        2.6947632E-19
   86.44200        2.6104145E-19
   86.60350        2.5521257E-19
   86.76500        2.5626373E-19
   86.92650        2.6304470E-19
   87.08800        2.6978061E-19
   87.24950        2.7074082E-19
   87.41100        2.6489371E-19
   87.57250        2.5664623E-19
   87.73400        2.5210940E-19
   87.89550        2.5409355E-19
   88.05700        2.6000877E-19
   88.21850        2.6424657E-19
   88.38000        2.6284682E-19
   88.54150        2.5649266E-19
   88.70300        2.4954000E-19
   88.86450        2.4624205E-19
   89.02600        2.4751979E-19
   89.18750        2.5082980E-19
   89.34900        2.5284313E-19
   89.51050        2.5230115E-19
   89.67200        2.5059982E-19
   89.83350        2.4991587E-19
   89.99500        2.5091712E-19
   90.15650        2.5227905E-19
   90.31800        2.5233711E-19
   90.47950        2.5108486E-19
   90.64100        2.5039440E-19
   90.80250        2.5210519E-19
   90.96400        2.5581276E-19
   91.12550        2.5867672E-19
   91.28700        2.5775178E-19
   91.44850        2.5289256E-19
   91.61000        2.4745997E-19
   91.77150        2.4583490E-19
   91.93300        2.4965422E-19
   92.09450        2.5605076E-19
   92.25600        2.5966753E-19
   92.41750        2.5699338E-19
   92.57900        2.4942716E-19
   92.74050        2.4238837E-19
   92.90200        2.4106212E-19
   93.06350        2.4622026E-19
   93.22500        2.5357416E-19
   93.38650        2.5720137E-19
   93.54800        2.5424280E-19
   93.70950        2.4703656E-19
   93.87100        2.4104878E-19
   94.03250        2.4042372E-19
   94.19400        2.4487808E-19
   94.35550        2.5037581E-19
   94.51700        2.5274744E-19
   94.67850        2.5102135E-19
   94.84000        2.4768091E-19
   95.00150        2.4593460E-19
   95.16300        2.4671003E-19
   95.32450        2.4814284E-19
   95.48600        2.4783396E-19
   95.64750        2.4549759E-19
   95.80900        2.4332738E-19
   95.97050        2.4369392E-19
   96.13200        2.4648840E-19
   96.29350        2.4884852E-19
   96.45500        2.4775137E-19
   96.61650        2.4309044E-19
   96.77800        2.3822013E-19
   96.93950        2.3719009E-19
   97.10100        2.4101479E-19
   97.26250        2.4641049E-19
   97.42400        2.4835387E-19
   97.58550        2.4440545E-19
   97.74700        2.3703057E-19
   97.90850        2.3175998E-19
   98.07000        2.3263051E-19
   98.23150        2.3877129E-19
   98.39300        2.4510346E-19
   98.55450        2.4662002E-19
   98.71600        2.4259620E-19
   98.87750        2.3710225E-19
   99.03900        2.3540937E-19
   99.20050        2.3942337E-19
   99.36200        2.4611213E-19
   99.52350        2.5024036E-19
   99.68500        2.4891193E-19
   99.84650        2.4389803E-19
   100.0080        2.3980131E-19
   100.1695        2.3984862E-19
   100.3310        2.4315514E-19
   100.4925        2.4579850E-19
   100.6540        2.4453951E-19
   100.8155        2.3969226E-19
   100.9770        2.3460150E-19
   101.1385        2.3240539E-19
   101.3000        2.3321466E-19
   101.4615        2.3430796E-19
   101.6230        2.3304498E-19
   101.7845        2.2965287E-19
   101.9460        2.2719030E-19
   102.1075        2.2864006E-19
   102.2690        2.3381997E-19
   102.4305        2.3907645E-19
   102.5920        2.4025337E-19
   102.7535        2.3642174E-19
   102.9150        2.3097276E-19
   103.0765        2.2889005E-19
   103.2380        2.3241113E-19
   103.3995        2.3887487E-19
   103.5610        2.4280796E-19
   103.7225        2.4061198E-19
   103.8840        2.3381708E-19
   104.0455        2.2797209E-19
   104.2070        2.2800696E-19
   104.3685        2.3401485E-19
   104.5300        2.4112193E-19
   104.6915        2.4357416E-19
   104.8530        2.3952889E-19
   105.0145        2.3245561E-19
   105.1760        2.2804501E-19
   105.3375        2.2940482E-19
   105.4990        2.3468608E-19
   105.6605        2.3903927E-19
   105.8220        2.3897682E-19
   105.9835        2.3524993E-19
   106.1450        2.3180873E-19
   106.3065        2.3197846E-19
   106.4680        2.3540573E-19
   106.6295        2.3852709E-19
   106.7910        2.3802737E-19
   106.9525        2.3402175E-19
   107.1140        2.2994528E-19
   107.2755        2.2920909E-19
   107.4370        2.3176830E-19
   107.5985        2.3395901E-19
   107.7600        2.3195246E-19
   107.9215        2.2569608E-19
   108.0830        2.1950186E-19
   108.2445        2.1841670E-19
   108.4060        2.2349841E-19
   108.5675        2.3041219E-19
   108.7290        2.3294344E-19
   108.8905        2.2851893E-19
   109.0520        2.2078097E-19
   109.2135        2.1669542E-19
   109.3750        2.2054874E-19
   109.5365        2.3008347E-19
   109.6980        2.3825356E-19
   109.8595        2.3915971E-19
   110.0210        2.3299832E-19
   110.1825        2.2570561E-19
   110.3440        2.2365981E-19
   110.5055        2.2813285E-19
   110.6670        2.3435392E-19
   110.8285        2.3593577E-19
   110.9900        2.3063993E-19
   111.1515        2.2234798E-19
   111.3130        2.1755220E-19
   111.4745        2.1960604E-19
   111.6360        2.2594914E-19
   111.7975        2.3073125E-19
   111.9590        2.3030944E-19
   112.1205        2.2648174E-19
   112.2820        2.2449788E-19
   112.4435        2.2780688E-19
   112.6050        2.3457534E-19
   112.7665        2.3933008E-19
   112.9280        2.3818151E-19
   113.0895        2.3263348E-19
   113.2510        2.2825162E-19
   113.4125        2.2934187E-19
   113.5740        2.3465558E-19
   113.7355        2.3828781E-19
   113.8970        2.3510732E-19
   114.0585        2.2572792E-19
   114.2200        2.1631600E-19
   114.3815        2.1322687E-19
   114.5430        2.1727610E-19
   114.7045        2.2288896E-19
   114.8660        2.2303167E-19
   115.0275        2.1557000E-19
   115.1890        2.0535224E-19
   115.3505        2.0008568E-19
   115.5120        2.0364023E-19
   115.6735        2.1271045E-19
   115.8350        2.1978923E-19
   115.9965        2.1976025E-19
   116.1580        2.1424245E-19
   116.3195        2.0985265E-19
   116.4810        2.1207103E-19
   116.6425        2.2029187E-19
   116.8040        2.2847230E-19
   116.9655        2.3066293E-19
   117.1270        2.2630746E-19
   117.2885        2.2051291E-19
   117.4500        2.1919110E-19
   117.6115        2.2365883E-19
   117.7730        2.2965494E-19
   117.9345        2.3154331E-19
   118.0960        2.2766993E-19
   118.2575        2.2187186E-19
   118.4190        2.1981728E-19
   118.5805        2.2367512E-19
   118.7420        2.3010528E-19