  -27.90000        1.0867283E-17
  -27.73850        1.0889647E-17
  -27.57700        1.0924288E-17
  -27.41550        1.0956833E-17
  -27.25400        1.0976112E-17
  -27.09250        1.0979840E-17
  -26.93100        1.0975432E-17
  -26.76950        1.0975534E-17
  -26.60800        1.0990744E-17
  -26.44650        1.1023519E-17
  -26.28500        1.1066621E-17
  -26.12350        1.1106906E-17
  -25.96200        1.1132347E-17
  -25.80050        1.1138468E-17
  -25.63900        1.1130688E-17
  -25.47750        1.1121400E-17
  -25.31600        1.1123400E-17
  -25.15450        1.1143165E-17
  -24.99300        1.1177557E-17
  -24.83150        1.1215610E-17
  -24.67000        1.1244476E-17
  -24.50850        1.1256342E-17
  -24.34700        1.1252678E-17
  -24.18550        1.1243469E-17
  -24.02400        1.1241809E-17
  -23.86250        1.1256707E-17
  -23.70100        1.1288042E-17
  -23.53950        1.1326507E-17
  -23.37800        1.1358678E-17
  -23.21650        1.1374428E-17
  -23.05500        1.1372566E-17
  -22.89350        1.1361511E-17
  -22.73200        1.1354621E-17
  -22.57050        1.1362835E-17
  -22.40900        1.1388709E-17
  -22.24750        1.1425115E-17
  -22.08600        1.1459196E-17
  -21.92450        1.1479306E-17
  -21.76300        1.1481192E-17
  -21.60150        1.1470184E-17
  -21.44000        1.1458331E-17
  -21.27850        1.1458036E-17
  -21.11700        1.1475457E-17
  -20.95550        1.1507137E-17
  -20.79400        1.1541688E-17
  -20.63250        1.1565819E-17
  -20.47100        1.1571623E-17
  -20.30950        1.1561197E-17
  -20.14800        1.1545856E-17
  -19.98650        1.1540146E-17
  -19.82500        1.1553774E-17
  -19.66350        1.1585998E-17
  -19.50200        1.1625741E-17
  -19.34050        1.1657542E-17
  -19.17900        1.1670044E-17
  -19.01750        1.1662230E-17
  -18.85600        1.1643915E-17
  -18.69450        1.1630220E-17
  -18.53300        1.1633207E-17
  -18.37150        1.1655317E-17
  -18.21000        1.1688205E-17
  -18.04850        1.1717477E-17
  -17.88700        1.1730669E-17
  -17.72550        1.1724085E-17
  -17.56400        1.1704859E-17
  -17.40250        1.1687168E-17
  -17.24100        1.1684652E-17
  -17.07950        1.1703067E-17
  -16.91800        1.1737105E-17
  -16.75650        1.1773103E-17
  -16.59500        1.1796275E-17
  -16.43350        1.1798639E-17
  -16.27200        1.1783331E-17
  -16.11050        1.1762893E-17
  -15.94900        1.1752375E-17
  -15.78750        1.1761008E-17
  -15.62600        1.1787081E-17
  -15.46450        1.1818937E-17
  -15.30300        1.1841546E-17
  -15.14150        1.1844997E-17
  -14.98000        1.1830139E-17
  -14.81850        1.1808230E-17
  -14.65700        1.1794793E-17
  -14.49550        1.1801120E-17
  -14.33400        1.1828076E-17
  -14.17250        1.1865616E-17
  -14.01100        1.1898240E-17
  -13.84950        1.1913374E-17
  -13.68800        1.1908085E-17
  -13.52650        1.1890467E-17
  -13.36500        1.1874969E-17
  -13.20350        1.1874300E-17
  -13.04200        1.1892380E-17
  -12.88050        1.1922207E-17
  -12.71900        1.1949766E-17
  -12.55750        1.1961777E-17
  -12.39600        1.1953068E-17
  -12.23450        1.1929579E-17
  -12.07300        1.1905358E-17
  -11.91150        1.1895142E-17
  -11.75000        1.1906450E-17
  -11.58850        1.1935492E-17
  -11.42700        1.1969180E-17
  -11.26550        1.1992263E-17
  -11.10400        1.1995721E-17
  -10.94250        1.1981766E-17
  -10.78100        1.1962586E-17
  -10.61950        1.1953491E-17
  -10.45800        1.1964288E-17
  -10.29650        1.1993744E-17
  -10.13500        1.2030239E-17
  -9.973500        1.2058207E-17
  -9.812000        1.2066733E-17
  -9.650500        1.2055497E-17
  -9.489000        1.2034831E-17
  -9.327500        1.2019934E-17
  -9.166000        1.2022512E-17
  -9.004500        1.2044455E-17
  -8.843000        1.2076946E-17
  -8.681500        1.2105340E-17
  -8.520000        1.2117093E-17
  -8.358500        1.2108448E-17
  -8.197000        1.2086363E-17
  -8.035500        1.2064782E-17
  -7.874000        1.2057227E-17
  -7.712500        1.2069615E-17
  -7.551000        1.2097113E-17
  -7.389500        1.2126765E-17
  -7.228000        1.2144605E-17
  -7.066500        1.2143475E-17
  -6.905000        1.2127212E-17
  -6.743500        1.2108713E-17
  -6.582000        1.2102835E-17
  -6.420500        1.2118054E-17
  -6.259000        1.2151617E-17
  -6.097500        1.2190956E-17
  -5.936000        1.2220536E-17
  -5.774500        1.2230295E-17
  -5.613000        1.2220969E-17
  -5.451500        1.2203476E-17
  -5.290000        1.2192775E-17
  -5.128500        1.2199635E-17
  -4.967000        1.2224781E-17
  -4.805500        1.2258571E-17
  -4.644000        1.2286383E-17
  -4.482500        1.2296750E-17
  -4.321000        1.2287785E-17
  -4.159500        1.2268357E-17
  -3.998000        1.2253296E-17
  -3.836500        1.2255279E-17
  -3.675000        1.2277833E-17
  -3.513500        1.2313333E-17
  -3.352000        1.2347099E-17
  -3.190500        1.2365346E-17
  -3.029000        1.2362629E-17
  -2.867500        1.2344696E-17
  -2.706000        1.2325180E-17
  -2.544500        1.2317978E-17
  -2.383000        1.2329580E-17
  -2.221500        1.2355589E-17
  -2.060000        1.2383347E-17
  -1.898500        1.2399099E-17
  -1.737000        1.2395666E-17
  -1.575500        1.2376396E-17
  -1.414000        1.2353310E-17
  -1.252500        1.2340578E-17
  -1.091000        1.2346897E-17
 -0.9295000        1.2370851E-17
 -0.7680000        1.2401705E-17
 -0.6065000        1.2425207E-17
 -0.4450000        1.2431293E-17
 -0.2835000        1.2419544E-17
 -0.1220000        1.2399364E-17
  3.9500002E-02    1.2384754E-17
  0.2010000        1.2386536E-17
  0.3625000        1.2406371E-17
  0.5240000        1.2435925E-17
  0.6855000        1.2461591E-17
  0.8470000        1.2472091E-17
   1.008500        1.2464720E-17
   1.170000        1.2446843E-17
   1.331500        1.2431869E-17
   1.493000        1.2431938E-17
   1.654500        1.2451283E-17
   1.816000        1.2483861E-17
   1.977500        1.2516604E-17
   2.139000        1.2536559E-17
   2.300500        1.2538008E-17
   2.462000        1.2525608E-17
   2.623500        1.2511736E-17
   2.785000        1.2509536E-17
   2.946500        1.2525553E-17
   3.108000        1.2556102E-17
   3.269500        1.2589354E-17
   3.431000        1.2611924E-17
   3.592500        1.2616269E-17
   3.754000        1.2604817E-17
   3.915500        1.2588595E-17
   4.077000        1.2581128E-17
   4.238500        1.2590981E-17
   4.400000        1.2617031E-17
   4.561500        1.2649057E-17
   4.723000        1.2673314E-17
   4.884500        1.2680024E-17
   5.046000        1.2668682E-17
   5.207500        1.2648334E-17
   5.369000        1.2632688E-17
   5.530500        1.2632740E-17
   5.692000        1.2650843E-17
   5.853500        1.2679469E-17
   6.015000        1.2705364E-17
   6.176500        1.2716935E-17
   6.338000        1.2710804E-17
   6.499500        1.2693842E-17
   6.661000        1.2679388E-17
   6.822500        1.2679711E-17
   6.984000        1.2699018E-17
   7.145500        1.2731032E-17
   7.307000        1.2762526E-17
   7.468500        1.2780711E-17
   7.630000        1.2780203E-17
   7.791500        1.2765686E-17
   7.953000        1.2748963E-17
   8.114500        1.2742223E-17
   8.276000        1.2751363E-17
   8.437500        1.2772964E-17
   8.599000        1.2796424E-17
   8.760500        1.2809979E-17
   8.922000        1.2807267E-17
   9.083500        1.2790876E-17
   9.245000        1.2770959E-17
   9.406500        1.2759727E-17
   9.568000        1.2764831E-17
   9.729500        1.2785244E-17
   9.891000        1.2811868E-17
   10.05250        1.2832534E-17
   10.21400        1.2838665E-17
   10.37550        1.2829995E-17
   10.53700        1.2814727E-17
   10.69850        1.2804959E-17
   10.86000        1.2809820E-17
   11.02150        1.2830159E-17
   11.18300        1.2857887E-17
   11.34450        1.2880504E-17
   11.50600        1.2888299E-17
   11.66750        1.2880048E-17
   11.82900        1.2863790E-17
   11.99050        1.2852200E-17
   12.15200        1.2855262E-17
   12.31350        1.2874552E-17
   12.47500        1.2902449E-17
   12.63650        1.2926632E-17
   12.79800        1.2937146E-17
   12.95950        1.2931962E-17
   13.12100        1.2917897E-17
   13.28250        1.2906552E-17
   13.44400        1.2907732E-17
   13.60550        1.2924102E-17
   13.76700        1.2950000E-17
   13.92850        1.2974863E-17
   14.09000        1.2989166E-17
   14.25150        1.2989525E-17
   14.41300        1.2980290E-17
   14.57450        1.2970957E-17
   14.73600        1.2970922E-17
   14.89750        1.2984403E-17
   15.05900        1.3008183E-17
   15.22050        1.3033331E-17
   15.38200        1.3050040E-17
   15.54350        1.3053001E-17
   15.70500        1.3044332E-17
   15.86650        1.3032347E-17
   16.02800        1.3026781E-17
   16.18950        1.3033229E-17
   16.35100        1.3050085E-17
   16.51250        1.3069742E-17
   16.67400        1.3083233E-17
   16.83550        1.3085460E-17
   16.99700        1.3077960E-17
   17.15850        1.3067780E-17
   17.32000        1.3063386E-17
   17.48150        1.3070021E-17
   17.64300        1.3087055E-17
   17.80450        1.3108552E-17
   17.96600        1.3126580E-17
   18.12750        1.3135415E-17
   18.28900        1.3134477E-17
   18.45050        1.3128499E-17
   18.61200        1.3124875E-17
   18.77350        1.3129565E-17
   18.93500        1.3143733E-17
   19.09650        1.3162977E-17
   19.25800        1.3179710E-17
   19.41950        1.3187474E-17
   19.58100        1.3184787E-17
   19.74250        1.3176236E-17
   19.90400        1.3169967E-17
   20.06550        1.3172928E-17
   20.22700        1.3186664E-17
   20.38850        1.3206273E-17
   20.55000        1.3223267E-17
   20.71150        1.3230597E-17
   20.87300        1.3226779E-17
   21.03450        1.3216630E-17
   21.19600        1.3208276E-17
   21.35750        1.3208374E-17
   21.51900        1.3218390E-17
   21.68050        1.3234023E-17
   21.84200        1.3247886E-17
   22.00350        1.3253798E-17
   22.16500        1.3250261E-17
   22.32650        1.3241235E-17
   22.48800        1.3233891E-17
   22.64950        1.3234603E-17
   22.81100        1.3245417E-17
   22.97250        1.3262974E-17
   23.13400        1.3280448E-17
   23.29550        1.3291395E-17
   23.45700        1.3293325E-17
   23.61850        1.3288968E-17
   23.78000        1.3284582E-17
   23.94150        1.3286290E-17
   24.10300        1.3296529E-17
   24.26450        1.3312610E-17
   24.42600        1.3328218E-17
   24.58750        1.3337052E-17
   24.74900        1.3336553E-17
   24.91050        1.3329558E-17
   25.07200        1.3322798E-17
   25.23350        1.3323010E-17
   25.39500        1.3332923E-17
   25.55650        1.3349533E-17
   25.71800        1.3365828E-17
   25.87950        1.3374991E-17
   26.04100        1.3374560E-17
   26.20250        1.3367997E-17
   26.36400        1.3362635E-17
   26.52550        1.3365217E-17
   26.68700        1.3377743E-17
   26.84850        1.3396183E-17
   27.01000        1.3412883E-17
   27.17150        1.3421199E-17
   27.33300        1.3419546E-17
   27.49450        1.3412394E-17
   27.65600        1.3407646E-17
   27.81750        1.3411989E-17
   27.97900        1.3426948E-17
   28.14050        1.3447891E-17
   28.30200        1.3466524E-17
   28.46350        1.3475469E-17
   28.62500        1.3472437E-17
   28.78650        1.3461685E-17
   28.94800        1.3451834E-17
   29.10950        1.3451081E-17
   29.27100        1.3462369E-17
   29.43250        1.3481407E-17
   29.59400        1.3498961E-17
   29.75550        1.3506349E-17
   29.91700        1.3500908E-17
   30.07850        1.3487966E-17
   30.24000        1.3477848E-17
   30.40150        1.3479627E-17
   30.56300        1.3495503E-17
   30.72450        1.3519396E-17
   30.88600        1.3540640E-17
   31.04750        1.3550461E-17
   31.20900        1.3547182E-17
   31.37050        1.3536999E-17
   31.53200        1.3530011E-17
   31.69350        1.3534047E-17
   31.85500        1.3550037E-17
   32.01650        1.3571552E-17
   32.17800        1.3588610E-17
   32.33950        1.3593396E-17
   32.50100        1.3584672E-17
   32.66250        1.3568459E-17
   32.82400        1.3554751E-17
   32.98550        1.3552041E-17
   33.14700        1.3562611E-17
   33.30850        1.3581170E-17
   33.47000        1.3597704E-17
   33.63150        1.3603186E-17
   33.79300        1.3595009E-17
   33.95450        1.3578937E-17
   34.11600        1.3566117E-17
   34.27750        1.3566632E-17
   34.43900        1.3583345E-17
   34.60050        1.3609844E-17
   34.76200        1.3633949E-17
   34.92350        1.3644813E-17
   35.08500        1.3639367E-17
   35.24650        1.3624223E-17
   35.40800        1.3611879E-17
   35.56950        1.3613467E-17
   35.73100        1.3632292E-17
   35.89250        1.3661867E-17
   36.05400        1.3689556E-17
   36.21550        1.3703717E-17
   36.37700        1.3700302E-17
   36.53850        1.3685159E-17
   36.70000        1.3670700E-17
   36.86150        1.3668814E-17
   37.02300        1.3684036E-17
   37.18450        1.3710897E-17
   37.34600        1.3736971E-17
   37.50750        1.3749950E-17
   37.66900        1.3744670E-17
   37.83050        1.3726100E-17
   37.99200        1.3706561E-17
   38.15350        1.3698723E-17
   38.31500        1.3708384E-17
   38.47650        1.3731197E-17
   38.63800        1.3755262E-17
   38.79950        1.3768110E-17
   38.96100        1.3764017E-17
   39.12250        1.3747379E-17
   39.28400        1.3730175E-17
   39.44550        1.3725038E-17
   39.60700        1.3737961E-17
   39.76850        1.3764863E-17
   39.93000        1.3793916E-17
   40.09150        1.3812271E-17
   40.25300        1.3813310E-17
   40.41450        1.3800298E-17
   40.57600        1.3784376E-17
   40.73750        1.3778023E-17
   40.89900        1.3787783E-17
   41.06050        1.3810479E-17
   41.22200        1.3835118E-17
   41.38350        1.3849321E-17
   41.54500        1.3846468E-17
   41.70650        1.3829365E-17
   41.86800        1.3808453E-17
   42.02950        1.3795770E-17
   42.19100        1.3798275E-17
   42.35250        1.3814207E-17
   42.51400        1.3834354E-17
   42.67550        1.3847290E-17
   42.83700        1.3845668E-17
   42.99850        1.3830208E-17
   43.16000        1.3809313E-17
   43.32150        1.3794578E-17
   43.48300        1.3794585E-17
   43.64450        1.3810345E-17
   43.80600        1.3834831E-17
   43.96750        1.3856873E-17
   44.12900        1.3867283E-17
   44.29050        1.3863843E-17
   44.45200        1.3852407E-17
   44.61350        1.3843533E-17
   44.77500        1.3846502E-17
   44.93650        1.3864047E-17
   45.09800        1.3890743E-17
   45.25950        1.3915972E-17
   45.42100        1.3929765E-17
   45.58250        1.3928211E-17
   45.74400        1.3915411E-17
   45.90550        1.3900980E-17
   46.06700        1.3894700E-17
   46.22850        1.3901376E-17
   46.39000        1.3918617E-17
   46.55150        1.3938516E-17
   46.71300        1.3952050E-17
   46.87450        1.3953880E-17
   47.03600        1.3945076E-17
   47.19750        1.3932539E-17
   47.35900        1.3925351E-17
   47.52050        1.3929908E-17
   47.68200        1.3946336E-17
   47.84350        1.3968179E-17
   48.00500        1.3985685E-17
   48.16650        1.3991032E-17
   48.32800        1.3982653E-17
   48.48950        1.3966233E-17
   48.65100        1.3951751E-17
   48.81250        1.3948123E-17
   48.97400        1.3958383E-17
   49.13550        1.3978039E-17
   49.29700        1.3997557E-17
   49.45850        1.4007660E-17
   49.62000        1.4004520E-17
   49.78150        1.3991965E-17
   49.94300        1.3979412E-17
   50.10450        1.3976656E-17
   50.26600        1.3988405E-17
   50.42750        1.4011538E-17
   50.58900        1.4036593E-17
   50.75050        1.4052667E-17
   50.91200        1.4053178E-17
   51.07350        1.4039498E-17
   51.23500        1.4020531E-17
   51.39650        1.4008289E-17
   51.55800        1.4011558E-17
   51.71950        1.4030967E-17
   51.88100        1.4058252E-17
   52.04250        1.4080475E-17
   52.20400        1.4087154E-17
   52.36550        1.4076366E-17
   52.52700        1.4056196E-17
   52.68850        1.4040403E-17
   52.85000        1.4040597E-17
   53.01150        1.4059354E-17
   53.17300        1.4088362E-17
   53.33450        1.4112854E-17
   53.49600        1.4119933E-17
   53.65750        1.4106076E-17
   53.81900        1.4079418E-17
   53.98050        1.4055362E-17
   54.14200        1.4047912E-17
   54.30350        1.4061711E-17
   54.46500        1.4089381E-17
   54.62650        1.4115759E-17
   54.78800        1.4126561E-17
   54.94950        1.4116487E-17
   55.11100        1.4092188E-17
   55.27250        1.4068448E-17
   55.43400        1.4059814E-17
   55.59550        1.4072359E-17
   55.75700        1.4100159E-17
   55.91850        1.4128518E-17
   56.08000        1.4142221E-17
   56.24150        1.4134293E-17
   56.40300        1.4110283E-17
   56.56450        1.4085447E-17
   56.72600        1.4076257E-17
   56.88750        1.4090980E-17
   57.04900        1.4124774E-17
   57.21050        1.4162254E-17
   57.37200        1.4186152E-17
   57.53350        1.4187124E-17
   57.69500        1.4169055E-17
   57.85650        1.4146767E-17
   58.01800        1.4137407E-17
   58.17950        1.4150407E-17
   58.34100        1.4181873E-17
   58.50250        1.4216666E-17
   58.66400        1.4237075E-17
   58.82550        1.4233065E-17
   58.98700        1.4208142E-17
   59.14850        1.4177412E-17
   59.31000        1.4159026E-17
   59.47150        1.4163997E-17
   59.63300        1.4190249E-17
   59.79450        1.4224090E-17
   59.95600        1.4248118E-17
   60.11750        1.4250924E-17
   60.27900        1.4233265E-17
   60.44050        1.4207368E-17
   60.60200        1.4189898E-17
   60.76350        1.4192547E-17
   60.92500        1.4215459E-17
   61.08650        1.4247147E-17
   61.24800        1.4270950E-17
   61.40950        1.4274416E-17
   61.57100        1.4256340E-17
   61.73250        1.4227457E-17
   61.89400        1.4204398E-17
   62.05550        1.4200349E-17
   62.21700        1.4217671E-17
   62.37850        1.4246707E-17
   62.54000        1.4271453E-17
   62.70150        1.4278830E-17
   62.86300        1.4266167E-17
   63.02450        1.4242553E-17
   63.18600        1.4223255E-17
   63.34750        1.4220664E-17
   63.50900        1.4237137E-17
   63.67050        1.4263982E-17
   63.83200        1.4286870E-17
   63.99350        1.4294242E-17
   64.15500        1.4283684E-17
   64.31650        1.4262845E-17
   64.47800        1.4244781E-17
   64.63950        1.4240669E-17
   64.80100        1.4253925E-17
   64.96250        1.4278671E-17
   65.12400        1.4303091E-17
   65.28550        1.4315763E-17
   65.44700        1.4311677E-17
   65.60850        1.4294827E-17
   65.77000        1.4276044E-17
   65.93150        1.4267125E-17
   66.09300        1.4274345E-17
   66.25450        1.4294922E-17
   66.41600        1.4318453E-17
   66.57750        1.4332719E-17
   66.73900        1.4330682E-17
   66.90050        1.4314701E-17
   67.06200        1.4295385E-17
   67.22350        1.4285641E-17
   67.38500        1.4293279E-17
   67.54650        1.4316553E-17
   67.70800        1.4345290E-17
   67.86950        1.4366868E-17
   68.03100        1.4373368E-17
   68.19250        1.4365705E-17
   68.35400        1.4352487E-17
   68.51550        1.4344665E-17
   68.67700        1.4349291E-17
   68.83850        1.4365900E-17
   69.00000        1.4387187E-17
   69.16150        1.4403241E-17
   69.32300        1.4406886E-17
   69.48450        1.4397337E-17
   69.64600        1.4380452E-17
   69.80750        1.4365593E-17
   69.96900        1.4360741E-17
   70.13050        1.4368448E-17
   70.29200        1.4384686E-17
   70.45350        1.4401201E-17
   70.61500        1.4410057E-17
   70.77650        1.4407910E-17
   70.93800        1.4397669E-17
   71.09950        1.4386711E-17
   71.26100        1.4382671E-17
   71.42250        1.4389144E-17
   71.58400        1.4403696E-17
   71.74550        1.4419277E-17
   71.90700        1.4428235E-17
   72.06850        1.4426649E-17
   72.23000        1.4416516E-17
   72.39150        1.4404601E-17
   72.55300        1.4398662E-17
   72.71450        1.4403239E-17
   72.87600        1.4417333E-17
   73.03750        1.4435061E-17
   73.19900        1.4448847E-17
   73.36050        1.4453358E-17
   73.52200        1.4448198E-17
   73.68350        1.4438072E-17
   73.84500        1.4430303E-17
   74.00650        1.4430962E-17
   74.16800        1.4441530E-17
   74.32950        1.4457928E-17
   74.49100        1.4472546E-17
   74.65250        1.4478296E-17
   74.81400        1.4472559E-17
   74.97550        1.4458804E-17
   75.13700        1.4444936E-17
   75.29850        1.4439131E-17
   75.46000        1.4445371E-17
   75.62150        1.4461111E-17
   75.78300        1.4478462E-17
   75.94450        1.4488447E-17
   76.10600        1.4486053E-17
   76.26750        1.4473204E-17
   76.42900        1.4457827E-17
   76.59050        1.4449408E-17
   76.75200        1.4453552E-17
   76.91350        1.4468747E-17
   77.07500        1.4487211E-17
   77.23650        1.4499300E-17
   77.39800        1.4498914E-17
   77.55950        1.4486899E-17
   77.72100        1.4470575E-17
   77.88250        1.4459761E-17
   78.04400        1.4461395E-17
   78.20550        1.4475689E-17
   78.36700        1.4495885E-17
   78.52850        1.4511908E-17
   78.69000        1.4515959E-17
   78.85150        1.4507001E-17
   79.01300        1.4491483E-17
   79.17450        1.4479750E-17
   79.33600        1.4480086E-17
   79.49750        1.4493814E-17
   79.65900        1.4514417E-17
   79.82050        1.4531312E-17
   79.98200        1.4536200E-17
   80.14350        1.4528220E-17
   80.30500        1.4514705E-17
   80.46650        1.4506915E-17
   80.62800        1.4513195E-17
   80.78950        1.4533750E-17
   80.95100        1.4560336E-17
   81.11250        1.4581105E-17
   81.27400        1.4587626E-17
   81.43550        1.4579747E-17
   81.59700        1.4565388E-17
   81.75850        1.4555626E-17
   81.92000        1.4558126E-17
   82.08150        1.4572866E-17
   82.24300        1.4592455E-17
   82.40450        1.4606648E-17
   82.56600        1.4608355E-17
   82.72750        1.4597761E-17
   82.88900        1.4582286E-17
   83.05050        1.4572419E-17
   83.21200        1.4575731E-17
   83.37350        1.4592492E-17
   83.53500        1.4615428E-17
   83.69650        1.4633925E-17
   83.85800        1.4640213E-17
   84.01950        1.4633919E-17
   84.18100        1.4622171E-17
   84.34250        1.4615151E-17
   84.50400        1.4619742E-17
   84.66550        1.4635163E-17
   84.82700        1.4653364E-17
   84.98850        1.4663970E-17
   85.15000        1.4660746E-17
   85.31150        1.4645496E-17
   85.47300        1.4626929E-17
   85.63450        1.4615206E-17
   85.79600        1.4615699E-17
   85.95750        1.4625921E-17
   86.11900        1.4637502E-17
   86.28050        1.4641719E-17
   86.44200        1.4634956E-17
   86.60350        1.4620685E-17
   86.76500        1.4606994E-17
   86.92650        1.4601473E-17
   87.08800        1.4606751E-17
   87.24950        1.4619200E-17
   87.41100        1.4631363E-17
   87.57250        1.4636422E-17
   87.73400        1.4632097E-17
   87.89550        1.4621767E-17
   88.05700        1.4612351E-17
   88.21850        1.4610195E-17
   88.38000        1.4617439E-17
   88.54150        1.4630848E-17
   88.70300        1.4643795E-17
   88.86450        1.4650135E-17
   89.02600        1.4647742E-17
   89.18750        1.4639667E-17
   89.34900        1.4632330E-17
   89.51050        1.4631803E-17
   89.67200        1.4640308E-17
   89.83350        1.4654957E-17
   89.99500        1.4669496E-17
   90.15650        1.4678075E-17
   90.31800        1.4678801E-17
   90.47950        1.4674806E-17
   90.64100        1.4672138E-17
   90.80250        1.4675784E-17
   90.96400        1.4686430E-17
   91.12550        1.4700090E-17
   91.28700        1.4710777E-17
   91.44850        1.4714370E-17
   91.61000        1.4711108E-17
   91.77150        1.4705202E-17
   91.93300        1.4701966E-17
   92.09450        1.4704421E-17
   92.25600        1.4711515E-17
   92.41750        1.4718999E-17
   92.57900        1.4722291E-17
   92.74050        1.4719502E-17
   92.90200        1.4712698E-17
   93.06350        1.4706626E-17
   93.22500        1.4705804E-17
   93.38650        1.4711796E-17
   93.54800        1.4722390E-17
   93.70950        1.4733028E-17
   93.87100        1.4739460E-17
   94.03250        1.4740049E-17
   94.19400        1.4736519E-17
   94.35550        1.4732892E-17
   94.51700        1.4733278E-17
   94.67850        1.4739574E-17
   94.84000        1.4750266E-17
   95.00150        1.4761055E-17
   95.16300        1.4767176E-17
   95.32450        1.4766228E-17
   95.48600        1.4759804E-17
   95.64750        1.4752753E-17
   95.80900        1.4750366E-17
   95.97050        1.4755211E-17
   96.13200        1.4765581E-17
   96.29350        1.4776586E-17
   96.45500        1.4783173E-17
   96.61650        1.4783192E-17
   96.77800        1.4778635E-17
   96.93950        1.4774326E-17
   97.10100        1.4774895E-17
   97.26250        1.4781923E-17
   97.42400        1.4793014E-17
   97.58550        1.4803307E-17
   97.74700        1.4808417E-17
   97.90850        1.4806880E-17
   98.07000        1.4800685E-17
   98.23150        1.4793796E-17
   98.39300        1.4789816E-17
   98.55450        1.4790194E-17
   98.71600        1.4793789E-17
   98.87750        1.4797742E-17
   99.03900        1.4799065E-17
   99.20050        1.4796297E-17
   99.36200        1.4790506E-17
   99.52350        1.4785044E-17
   99.68500        1.4783920E-17
   99.84650        1.4789435E-17
   100.0080        1.4800491E-17
   100.1695        1.4812843E-17
   100.3310        1.4821411E-17
   100.4925        1.4823376E-17
   100.6540        1.4820024E-17
   100.8155        1.4816065E-17
   100.9770        1.4816737E-17
   101.1385        1.4824465E-17
   101.3000        1.4837183E-17
   101.4615        1.4849394E-17
   101.6230        1.4855361E-17
   101.7845        1.4852516E-17
   101.9460        1.4842997E-17
   102.1075        1.4832419E-17
   102.2690        1.4826691E-17
   102.4305        1.4828830E-17
   102.5920        1.4837580E-17
   102.7535        1.4848435E-17
   102.9150        1.4856276E-17
   103.0765        1.4858073E-17
   103.2380        1.4854334E-17
   103.3995        1.4848734E-17
   103.5610        1.4846120E-17
   103.7225        1.4849829E-17
   103.8840        1.4859618E-17
   104.0455        1.4871458E-17
   104.2070        1.4879585E-17
   104.3685        1.4879853E-17
   104.5300        1.4872382E-17
   104.6915        1.4861698E-17
   104.8530        1.4854045E-17
   105.0145        1.4853542E-17
   105.1760        1.4859658E-17
   105.3375        1.4867680E-17
   105.4990        1.4871796E-17
   105.6605        1.4868788E-17
   105.8220        1.4859939E-17
   105.9835        1.4850096E-17
   106.1450        1.4844606E-17
   106.3065        1.4846153E-17
   106.4680        1.4853419E-17
   106.6295        1.4862254E-17
   106.7910        1.4868381E-17
   106.9525        1.4869897E-17
   107.1140        1.4868055E-17
   107.2755        1.4866148E-17
   107.4370        1.4867412E-17
   107.5985        1.4873285E-17
   107.7600        1.4882830E-17
   107.9215        1.4893367E-17
   108.0830        1.4901829E-17
   108.2445        1.4906208E-17
   108.4060        1.4906514E-17
   108.5675        1.4904812E-17
   108.7290        1.4904180E-17
   108.8905        1.4907034E-17
   109.0520        1.4913693E-17
   109.2135        1.4922151E-17
   109.3750        1.4929262E-17
   109.5365        1.4932657E-17
   109.6980        1.4932183E-17
   109.8595        1.4929983E-17
   110.0210        1.4929197E-17
   110.1825        1.4932165E-17
   110.3440        1.4939193E-17
   110.5055        1.4948552E-17
   110.6670        1.4957604E-17
   110.8285        1.4964290E-17
   110.9900        1.4968068E-17
   111.1515        1.4969797E-17
   111.3130        1.4970821E-17
   111.4745        1.4972017E-17
   111.6360        1.4973443E-17
   111.7975        1.4974712E-17
   111.9590        1.4975549E-17
   112.1205        1.4976036E-17
   112.2820        1.4976424E-17
   112.4435        1.4976853E-17
   112.6050        1.4977324E-17
   112.7665        1.4977940E-17
   112.9280        1.4979040E-17
   113.0895        1.4981030E-17
   113.2510        1.4983947E-17
   113.4125        1.4987191E-17
   113.5740        1.4989659E-17
   113.7355        1.4990306E-17
   113.8970        1.4988743E-17
   114.0585        1.4985525E-17
   114.2200        1.4981870E-17
   114.3815        1.4978936E-17
   114.5430        1.4977084E-17
   114.7045        1.4975638E-17
   114.8660        1.4973354E-17
   115.0275        1.4969383E-17
   115.1890        1.4964070E-17
   115.3505        1.4959025E-17
   115.5120        1.4956375E-17
   115.6735        1.4957581E-17
   115.8350        1.4962552E-17
   115.9965        1.4969522E-17
   116.1580        1.4975781E-17
   116.3195        1.4978994E-17
   116.4810        1.4978441E-17
   116.6425        1.4975534E-17
   116.8040        1.4973139E-17
   116.9655        1.4973905E-17
   117.1270        1.4978501E-17
   117.2885        1.4984933E-17
   117.4500        1.4989581E-17
   117.6115        1.4989477E-17
   117.7730        1.4984355E-17
   117.9345        1.4977088E-17
   118.0960        1.4972093E-17
   118.2575        1.4972639E-17
   118.4190        1.4978773E-17
   118.5805        1.4987219E-17
   118.7420        1.4993372E-17