  -27.90000       -1.0754488E-18
  -27.73850       -1.0759794E-18
  -27.57700       -1.0767927E-18
  -27.41550       -1.0775441E-18
  -27.25400       -1.0779802E-18
  -27.09250       -1.0780599E-18
  -26.93100       -1.0779468E-18
  -26.76950       -1.0778960E-18
  -26.60800       -1.0781079E-18
  -26.44650       -1.0786374E-18
  -26.28500       -1.0793868E-18
  -26.12350       -1.0801612E-18
  -25.96200       -1.0807503E-18
  -25.80050       -1.0810138E-18
  -25.63900       -1.0809518E-18
  -25.47750       -1.0807327E-18
  -25.31600       -1.0806452E-18
  -25.15450       -1.0809582E-18
  -24.99300       -1.0817422E-18
  -24.83150       -1.0827674E-18
  -24.67000       -1.0835935E-18
  -24.50850       -1.0838332E-18
  -24.34700       -1.0834439E-18
  -24.18550       -1.0828174E-18
  -24.02400       -1.0825626E-18
  -23.86250       -1.0830848E-18
  -23.70100       -1.0842596E-18
  -23.53950       -1.0854743E-18
  -23.37800       -1.0860398E-18
  -23.21650       -1.0856901E-18
  -23.05500       -1.0847967E-18
  -22.89350       -1.0841064E-18
  -22.73200       -1.0841928E-18
  -22.57050       -1.0850434E-18
  -22.40900       -1.0860933E-18
  -22.24750       -1.0866857E-18
  -22.08600       -1.0865733E-18
  -21.92450       -1.0860720E-18
  -21.76300       -1.0857570E-18
  -21.60150       -1.0859775E-18
  -21.44000       -1.0866064E-18
  -21.27850       -1.0872040E-18
  -21.11700       -1.0874328E-18
  -20.95550       -1.0873378E-18
  -20.79400       -1.0872598E-18
  -20.63250       -1.0874787E-18
  -20.47100       -1.0879329E-18
  -20.30950       -1.0882720E-18
  -20.14800       -1.0881981E-18
  -19.98650       -1.0877798E-18
  -19.82500       -1.0874437E-18
  -19.66350       -1.0876414E-18
  -19.50200       -1.0884706E-18
  -19.34050       -1.0895818E-18
  -19.17900       -1.0904388E-18
  -19.01750       -1.0907199E-18
  -18.85600       -1.0905253E-18
  -18.69450       -1.0902442E-18
  -18.53300       -1.0902374E-18
  -18.37150       -1.0905999E-18
  -18.21000       -1.0911745E-18
  -18.04850       -1.0917348E-18
  -17.88700       -1.0921407E-18
  -17.72550       -1.0923484E-18
  -17.56400       -1.0923390E-18
  -17.40250       -1.0921063E-18
  -17.24100       -1.0917352E-18
  -17.07950       -1.0914598E-18
  -16.91800       -1.0915557E-18
  -16.75650       -1.0920946E-18
  -16.59500       -1.0927781E-18
  -16.43350       -1.0930491E-18
  -16.27200       -1.0924800E-18
  -16.11050       -1.0911537E-18
  -15.94900       -1.0896977E-18
  -15.78750       -1.0888918E-18
  -15.62600       -1.0891098E-18
  -15.46450       -1.0900331E-18
  -15.30300       -1.0908820E-18
  -15.14150       -1.0910056E-18
  -14.98000       -1.0903858E-18
  -14.81850       -1.0896667E-18
  -14.65700       -1.0896872E-18
  -14.49550       -1.0908716E-18
  -14.33400       -1.0929294E-18
  -14.17250       -1.0950591E-18
  -14.01100       -1.0964751E-18
  -13.84950       -1.0968626E-18
  -13.68800       -1.0964731E-18
  -13.52650       -1.0958725E-18
  -13.36500       -1.0955691E-18
  -13.20350       -1.0957731E-18
  -13.04200       -1.0963688E-18
  -12.88050       -1.0970329E-18
  -12.71900       -1.0973944E-18
  -12.55750       -1.0971810E-18
  -12.39600       -1.0963504E-18
  -12.23450       -1.0951708E-18
  -12.07300       -1.0941771E-18
  -11.91150       -1.0939529E-18
  -11.75000       -1.0948130E-18
  -11.58850       -1.0965802E-18
  -11.42700       -1.0986269E-18
  -11.26550       -1.1002021E-18
  -11.10400       -1.1008566E-18
  -10.94250       -1.1006915E-18
  -10.78100       -1.1002645E-18
  -10.61950       -1.1002052E-18
  -10.45800       -1.1007998E-18
  -10.29650       -1.1018024E-18
  -10.13500       -1.1025902E-18
  -9.973500       -1.1025489E-18
  -9.812000       -1.1014355E-18
  -9.650500       -1.0995027E-18
  -9.489000       -1.0973295E-18
  -9.327500       -1.0954845E-18
  -9.166000       -1.0942458E-18
  -9.004500       -1.0935236E-18
  -8.843000       -1.0930093E-18
  -8.681500       -1.0924159E-18
  -8.520000       -1.0916571E-18
  -8.358500       -1.0908675E-18
  -8.197000       -1.0902844E-18
  -8.035500       -1.0901048E-18
  -7.874000       -1.0904162E-18
  -7.712500       -1.0912111E-18
  -7.551000       -1.0924420E-18
  -7.389500       -1.0940335E-18
  -7.228000       -1.0958563E-18
  -7.066500       -1.0977174E-18
  -6.905000       -1.0994380E-18
  -6.743500       -1.1009792E-18
  -6.582000       -1.1025025E-18
  -6.420500       -1.1042521E-18
  -6.259000       -1.1063068E-18
  -6.097500       -1.1083751E-18
  -5.936000       -1.1098611E-18
  -5.774500       -1.1102290E-18
  -5.613000       -1.1094416E-18
  -5.451500       -1.1081234E-18
  -5.290000       -1.1072564E-18
  -5.128500       -1.1075549E-18
  -4.967000       -1.1089532E-18
  -4.805500       -1.1105870E-18
  -4.644000       -1.1113261E-18
  -4.482500       -1.1104950E-18
  -4.321000       -1.1082975E-18
  -4.159500       -1.1056704E-18
  -3.998000       -1.1036961E-18
  -3.836500       -1.1029841E-18
  -3.675000       -1.1033896E-18
  -3.513500       -1.1041638E-18
  -3.352000       -1.1043717E-18
  -3.190500       -1.1033271E-18
  -3.029000       -1.1008830E-18
  -2.867500       -1.0975201E-18
  -2.706000       -1.0942197E-18
  -2.544500       -1.0921085E-18
  -2.383000       -1.0919410E-18
  -2.221500       -1.0936414E-18
  -2.060000       -1.0962083E-18
  -1.898500       -1.0981699E-18
  -1.737000       -1.0984350E-18
  -1.575500       -1.0970255E-18
  -1.414000       -1.0951681E-18
  -1.252500       -1.0945874E-18
  -1.091000       -1.0963995E-18
 -0.9295000       -1.1003470E-18
 -0.7680000       -1.1049151E-18
 -0.6065000       -1.1082682E-18
 -0.4450000       -1.1093629E-18
 -0.2835000       -1.1084988E-18
 -0.1220000       -1.1069753E-18
  3.9500002E-02   -1.1061833E-18
  0.2010000       -1.1067797E-18
  0.3625000       -1.1084459E-18
  0.5240000       -1.1102510E-18
  0.6855000       -1.1112620E-18
  0.8470000       -1.1110039E-18
   1.008500       -1.1096077E-18
   1.170000       -1.1077035E-18
   1.331500       -1.1061723E-18
   1.493000       -1.1058061E-18
   1.654500       -1.1069212E-18
   1.816000       -1.1090928E-18
   1.977500       -1.1112534E-18
   2.139000       -1.1122416E-18
   2.300500       -1.1115735E-18
   2.462000       -1.1099033E-18
   2.623500       -1.1087510E-18
   2.785000       -1.1095464E-18
   2.946500       -1.1125791E-18
   3.108000       -1.1166193E-18
   3.269500       -1.1195534E-18
   3.431000       -1.1196856E-18
   3.592500       -1.1168424E-18
   3.754000       -1.1125287E-18
   3.915500       -1.1090230E-18
   4.077000       -1.1080209E-18
   4.238500       -1.1096986E-18
   4.400000       -1.1127188E-18
   4.561500       -1.1150801E-18
   4.723000       -1.1152301E-18
   4.884500       -1.1128251E-18
   5.046000       -1.1088489E-18
   5.207500       -1.1051342E-18
   5.369000       -1.1035453E-18
   5.530500       -1.1051120E-18
   5.692000       -1.1094280E-18
   5.853500       -1.1146411E-18
   6.015000       -1.1182066E-18
   6.176500       -1.1181861E-18
   6.338000       -1.1144401E-18
   6.499500       -1.1089310E-18
   6.661000       -1.1047655E-18
   6.822500       -1.1044123E-18
   6.984000       -1.1081668E-18
   7.145500       -1.1138855E-18
   7.307000       -1.1182358E-18
   7.468500       -1.1187085E-18
   7.630000       -1.1151136E-18
   7.791500       -1.1096325E-18
   7.953000       -1.1054429E-18
   8.114500       -1.1048341E-18
   8.276000       -1.1079828E-18
   8.437500       -1.1130380E-18
   8.599000       -1.1173249E-18
   8.760500       -1.1188452E-18
   8.922000       -1.1172380E-18
   9.083500       -1.1137891E-18
   9.245000       -1.1106352E-18
   9.406500       -1.1096556E-18
   9.568000       -1.1115651E-18
   9.729500       -1.1155772E-18
   9.891000       -1.1197727E-18
   10.05250       -1.1220453E-18
   10.21400       -1.1212251E-18
   10.37550       -1.1178099E-18
   10.53700       -1.1138136E-18
   10.69850       -1.1116887E-18
   10.86000       -1.1128537E-18
   11.02150       -1.1167256E-18
   11.18300       -1.1209381E-18
   11.34450       -1.1227149E-18
   11.50600       -1.1206043E-18
   11.66750       -1.1154676E-18
   11.82900       -1.1100664E-18
   11.99050       -1.1074607E-18
   12.15200       -1.1091930E-18
   12.31350       -1.1143511E-18
   12.47500       -1.1200716E-18
   12.63650       -1.1231629E-18
   12.79800       -1.1219155E-18
   12.95950       -1.1170727E-18
   13.12100       -1.1114466E-18
   13.28250       -1.1084007E-18
   13.44400       -1.1100219E-18
   13.60550       -1.1159587E-18
   13.76700       -1.1235338E-18
   13.92850       -1.1291108E-18
   14.09000       -1.1300186E-18
   14.25150       -1.1260311E-18
   14.41300       -1.1195894E-18
   14.57450       -1.1145861E-18
   14.73600       -1.1142892E-18
   14.89750       -1.1195055E-18
   15.05900       -1.1280183E-18
   15.22050       -1.1356802E-18
   15.38200       -1.1386233E-18
   15.54350       -1.1353841E-18
   15.70500       -1.1277320E-18
   15.86650       -1.1197189E-18
   16.02800       -1.1154568E-18
   16.18950       -1.1168670E-18
   16.35100       -1.1226536E-18
   16.51250       -1.1290396E-18
   16.67400       -1.1318536E-18
   16.83550       -1.1288191E-18
   16.99700       -1.1208280E-18
   17.15850       -1.1115169E-18
   17.32000       -1.1053678E-18
   17.48150       -1.1053272E-18
   17.64300       -1.1112123E-18
   17.80450       -1.1197827E-18
   17.96600       -1.1264832E-18
   18.12750       -1.1279398E-18
   18.28900       -1.1238360E-18
   18.45050       -1.1170921E-18
   18.61200       -1.1122022E-18
   18.77350       -1.1126462E-18
   18.93500       -1.1188359E-18
   19.09650       -1.1277954E-18
   19.25800       -1.1348041E-18
   19.41950       -1.1360977E-18
   19.58100       -1.1310869E-18
   19.74250       -1.1227900E-18
   19.90400       -1.1161858E-18
   20.06550       -1.1153810E-18
   20.22700       -1.1212194E-18
   20.38850       -1.1307321E-18
   20.55000       -1.1387813E-18
   20.71150       -1.1409820E-18
   20.87300       -1.1362379E-18
   21.03450       -1.1274250E-18
   21.19600       -1.1198098E-18
   21.35750       -1.1180794E-18
   21.51900       -1.1236419E-18
   21.68050       -1.1337411E-18
   21.84200       -1.1429178E-18
   22.00350       -1.1460501E-18
   22.16500       -1.1412758E-18
   22.32650       -1.1311322E-18
   22.48800       -1.1212065E-18
   22.64950       -1.1170214E-18
   22.81100       -1.1209078E-18
   22.97250       -1.1306525E-18
   23.13400       -1.1406957E-18
   23.29550       -1.1452097E-18
   23.45700       -1.1413310E-18
   23.61850       -1.1307692E-18
   23.78000       -1.1189148E-18
   23.94150       -1.1119400E-18
   24.10300       -1.1134442E-18
   24.26450       -1.1224448E-18
   24.42600       -1.1338227E-18
   24.58750       -1.1410447E-18
   24.74900       -1.1397489E-18
   24.91050       -1.1302436E-18
   25.07200       -1.1174789E-18
   25.23350       -1.1084078E-18
   25.39500       -1.1081297E-18
   25.55650       -1.1169650E-18
   25.71800       -1.1301660E-18
   25.87950       -1.1405088E-18
   26.04100       -1.1423704E-18
   26.20250       -1.1349730E-18
   26.36400       -1.1229027E-18
   26.52550       -1.1135198E-18
   26.68700       -1.1127054E-18
   26.84850       -1.1214149E-18
   27.01000       -1.1350905E-18
   27.17150       -1.1463057E-18
   27.33300       -1.1490947E-18
   27.49450       -1.1423960E-18
   27.65600       -1.1306136E-18
   27.81750       -1.1210063E-18
   27.97900       -1.1194922E-18
   28.14050       -1.1272975E-18
   28.30200       -1.1403159E-18
   28.46350       -1.1514595E-18
   28.62500       -1.1546295E-18
   28.78650       -1.1480924E-18
   28.94800       -1.1354025E-18
   29.10950       -1.1233811E-18
   29.27100       -1.1182861E-18
   29.43250       -1.1223128E-18
   29.59400       -1.1324040E-18
   29.75550       -1.1420337E-18
   29.91700       -1.1449499E-18
   30.07850       -1.1387321E-18
   30.24000       -1.1261629E-18
   30.40150       -1.1136705E-18
   30.56300       -1.1077388E-18
   30.72450       -1.1113212E-18
   30.88600       -1.1222454E-18
   31.04750       -1.1344836E-18
   31.20900       -1.1415590E-18
   31.37050       -1.1401672E-18
   31.53200       -1.1319710E-18
   31.69350       -1.1225622E-18
   31.85500       -1.1182197E-18
   32.01650       -1.1223469E-18
   32.17800       -1.1336043E-18
   32.33950       -1.1467363E-18
   32.50100       -1.1555308E-18
   32.66250       -1.1562050E-18
   32.82400       -1.1493699E-18
   32.98550       -1.1395689E-18
   33.14700       -1.1327317E-18
   33.30850       -1.1329346E-18
   33.47000       -1.1402126E-18
   33.63150       -1.1505793E-18
   33.79300       -1.1582297E-18
   33.95450       -1.1587214E-18
   34.11600       -1.1513924E-18
   34.27750       -1.1397077E-18
   34.43900       -1.1293659E-18
   34.60050       -1.1252238E-18
   34.76200       -1.1287180E-18
   34.92350       -1.1371464E-18
   35.08500       -1.1451690E-18
   35.24650       -1.1477296E-18
   35.40800       -1.1428443E-18
   35.56950       -1.1327498E-18
   35.73100       -1.1227325E-18
   35.89250       -1.1182334E-18
   36.05400       -1.1217943E-18
   36.21550       -1.1315781E-18
   36.37700       -1.1423241E-18
   36.53850       -1.1482149E-18
   36.70000       -1.1460370E-18
   36.86150       -1.1368848E-18
   37.02300       -1.1255098E-18
   37.18450       -1.1177402E-18
   37.34600       -1.1173858E-18
   37.50750       -1.1242616E-18
   37.66900       -1.1343363E-18
   37.83050       -1.1418960E-18
   37.99200       -1.1426085E-18
   38.15350       -1.1358848E-18
   38.31500       -1.1252819E-18
   38.47650       -1.1166952E-18
   38.63800       -1.1152521E-18
   38.79950       -1.1225296E-18
   38.96100       -1.1355976E-18
   39.12250       -1.1484573E-18
   39.28400       -1.1552000E-18
   39.44550       -1.1532348E-18
   39.60700       -1.1448179E-18
   39.76850       -1.1359174E-18
   39.93000       -1.1329094E-18
   40.09150       -1.1388926E-18
   40.25300       -1.1517675E-18
   40.41450       -1.1653062E-18
   40.57600       -1.1726698E-18
   40.73750       -1.1703355E-18
   40.89900       -1.1600864E-18
   41.06050       -1.1479049E-18
   41.22200       -1.1404622E-18
   41.38350       -1.1413037E-18
   41.54500       -1.1489107E-18
   41.70650       -1.1576800E-18
   41.86800       -1.1611680E-18
   42.02950       -1.1557477E-18
   42.19100       -1.1426665E-18
   42.35250       -1.1274142E-18
   42.51400       -1.1167780E-18
   42.67550       -1.1151837E-18
   42.83700       -1.1223176E-18
   42.99850       -1.1333192E-18
   43.16000       -1.1414677E-18
   43.32150       -1.1419292E-18
   43.48300       -1.1345184E-18
   43.64450       -1.1239003E-18
   43.80600       -1.1170347E-18
   43.96750       -1.1191763E-18
   44.12900       -1.1306709E-18
   44.29050       -1.1464633E-18
   44.45200       -1.1587674E-18
   44.61350       -1.1614826E-18
   44.77500       -1.1537788E-18
   44.93650       -1.1406825E-18
   45.09800       -1.1302259E-18
   45.25950       -1.1288260E-18
   45.42100       -1.1376138E-18
   45.58250       -1.1518402E-18
   45.74400       -1.1636292E-18
   45.90550       -1.1664149E-18
   46.06700       -1.1585479E-18
   46.22850       -1.1441191E-18
   46.39000       -1.1306713E-18
   46.55150       -1.1251011E-18
   46.71300       -1.1299575E-18
   46.87450       -1.1420903E-18
   47.03600       -1.1543475E-18
   47.19750       -1.1594332E-18
   47.35900       -1.1539083E-18
   47.52050       -1.1401714E-18
   47.68200       -1.1253066E-18
   47.84350       -1.1173143E-18
   48.00500       -1.1207063E-18
   48.16650       -1.1338941E-18
   48.32800       -1.1499260E-18
   48.48950       -1.1603021E-18
   48.65100       -1.1597925E-18
   48.81250       -1.1494768E-18
   48.97400       -1.1361301E-18
   49.13550       -1.1282409E-18
   49.29700       -1.1309876E-18
   49.45850       -1.1431997E-18
   49.62000       -1.1581141E-18
   49.78150       -1.1674288E-18
   49.94300       -1.1661610E-18
   50.10450       -1.1554392E-18
   50.26600       -1.1416830E-18
   50.42750       -1.1327916E-18
   50.58900       -1.1336312E-18
   50.75050       -1.1433764E-18
   50.91200       -1.1561301E-18
   51.07350       -1.1643639E-18
   51.23500       -1.1631912E-18
   51.39650       -1.1530870E-18
   51.55800       -1.1395589E-18
   51.71950       -1.1299954E-18
   51.88100       -1.1294855E-18
   52.04250       -1.1379447E-18
   52.20400       -1.1501665E-18
   52.36550       -1.1587735E-18
   52.52700       -1.1584506E-18
   52.68850       -1.1490760E-18
   52.85000       -1.1359407E-18
   53.01150       -1.1268264E-18
   53.17300       -1.1275184E-18
   53.33450       -1.1383391E-18
   53.49600       -1.1538003E-18
   53.65750       -1.1656860E-18
   53.81900       -1.1678036E-18
   53.98050       -1.1595704E-18
   54.14200       -1.1462770E-18
   54.30350       -1.1358949E-18
   54.46500       -1.1343734E-18
   54.62650       -1.1422291E-18
   54.78800       -1.1543815E-18
   54.94950       -1.1632244E-18
   55.11100       -1.1630608E-18
   55.27250       -1.1533284E-18
   55.43400       -1.1388263E-18
   55.59550       -1.1269192E-18
   55.75700       -1.1233857E-18
   55.91850       -1.1293070E-18
   56.08000       -1.1406874E-18
   56.24150       -1.1509014E-18
   56.40300       -1.1544663E-18
   56.56450       -1.1499810E-18
   56.72600       -1.1406814E-18
   56.88750       -1.1324321E-18
   57.04900       -1.1303731E-18
   57.21050       -1.1360840E-18
   57.37200       -1.1467820E-18
   57.53350       -1.1569635E-18
   57.69500       -1.1615603E-18
   57.85650       -1.1588260E-18
   58.01800       -1.1512611E-18
   58.17950       -1.1440174E-18
   58.34100       -1.1417403E-18
   58.50250       -1.1458041E-18
   58.66400       -1.1536301E-18
   58.82550       -1.1604499E-18
   58.98700       -1.1623039E-18
   59.14850       -1.1583581E-18
   59.31000       -1.1511715E-18
   59.47150       -1.1449189E-18
   59.63300       -1.1428044E-18
   59.79450       -1.1452882E-18
   59.95600       -1.1500837E-18
   60.11750       -1.1537743E-18
   60.27900       -1.1539333E-18
   60.44050       -1.1504498E-18
   60.60200       -1.1453642E-18
   60.76350       -1.1414707E-18
   60.92500       -1.1406691E-18
   61.08650       -1.1430356E-18
   61.24800       -1.1470339E-18
   61.40950       -1.1505427E-18
   61.57100       -1.1520048E-18
   61.73250       -1.1511128E-18
   61.89400       -1.1488035E-18
   62.05550       -1.1466673E-18
   62.21700       -1.1460818E-18
   62.37850       -1.1474725E-18
   62.54000       -1.1500950E-18
   62.70150       -1.1524823E-18
   62.86300       -1.1533312E-18
   63.02450       -1.1522577E-18
   63.18600       -1.1499151E-18
   63.34750       -1.1474448E-18
   63.50900       -1.1457109E-18
   63.67050       -1.1448987E-18
   63.83200       -1.1446815E-18
   63.99350       -1.1446858E-18
   64.15500       -1.1447923E-18
   64.31650       -1.1450531E-18
   64.47800       -1.1454079E-18
   64.63950       -1.1455365E-18
   64.80100       -1.1450423E-18
   64.96250       -1.1438433E-18
   65.12400       -1.1424339E-18
   65.28550       -1.1417351E-18
   65.44700       -1.1425268E-18
   65.60850       -1.1448012E-18
   65.77000       -1.1475255E-18
   65.93150       -1.1491225E-18
   66.09300       -1.1484736E-18
   66.25450       -1.1458038E-18
   66.41600       -1.1427621E-18
   66.57750       -1.1415359E-18
   66.73900       -1.1435120E-18
   66.90050       -1.1483724E-18
   67.06200       -1.1542132E-18
   67.22350       -1.1585958E-18
   67.38500       -1.1598829E-18
   67.54650       -1.1580998E-18
   67.70800       -1.1548899E-18
   67.86950       -1.1526228E-18
   68.03100       -1.1530905E-18
   68.19250       -1.1564518E-18
   68.35400       -1.1610083E-18
   68.51550       -1.1640518E-18
   68.67700       -1.1634018E-18
   68.83850       -1.1587657E-18
   69.00000       -1.1520499E-18
   69.16150       -1.1463584E-18
   69.32300       -1.1442357E-18
   69.48450       -1.1462041E-18
   69.64600       -1.1504640E-18
   69.80750       -1.1539268E-18
   69.96900       -1.1539947E-18
   70.13050       -1.1500911E-18
   70.29200       -1.1440743E-18
   70.45350       -1.1392411E-18
   70.61500       -1.1384204E-18
   70.77650       -1.1422439E-18
   70.93800       -1.1486739E-18
   71.09950       -1.1541745E-18
   71.26100       -1.1558508E-18
   71.42250       -1.1532080E-18
   71.58400       -1.1484028E-18
   71.74550       -1.1448328E-18
   71.90700       -1.1450018E-18
   72.06850       -1.1490207E-18
   72.23000       -1.1546305E-18
   72.39150       -1.1586637E-18
   72.55300       -1.1589974E-18
   72.71450       -1.1557943E-18
   72.87600       -1.1513065E-18
   73.03750       -1.1483804E-18
   73.19900       -1.1486223E-18
   73.36050       -1.1513898E-18
   73.52200       -1.1542722E-18
   73.68350       -1.1547273E-18
   73.84500       -1.1517768E-18
   74.00650       -1.1466512E-18
   74.16800       -1.1420330E-18
   74.32950       -1.1404511E-18
   74.49100       -1.1428486E-18
   74.65250       -1.1480994E-18
   74.81400       -1.1536347E-18
   74.97550       -1.1567767E-18
   75.13700       -1.1561264E-18
   75.29850       -1.1523460E-18
   75.46000       -1.1478960E-18
   75.62150       -1.1457246E-18
   75.78300       -1.1475112E-18
   75.94450       -1.1524761E-18
   76.10600       -1.1576130E-18
   76.26750       -1.1593862E-18
   76.42900       -1.1559602E-18
   76.59050       -1.1485414E-18
   76.75200       -1.1408950E-18
   76.91350       -1.1372138E-18
   77.07500       -1.1395916E-18
   77.23650       -1.1466631E-18
   77.39800       -1.1543217E-18
   77.55950       -1.1581596E-18
   77.72100       -1.1561822E-18
   77.88250       -1.1500729E-18
   78.04400       -1.1441587E-18
   78.20550       -1.1426794E-18
   78.36700       -1.1471153E-18
   78.52850       -1.1552904E-18
   78.69000       -1.1627871E-18
   78.85150       -1.1656897E-18
   79.01300       -1.1628675E-18
   79.17450       -1.1564621E-18
   79.33600       -1.1504408E-18
   79.49750       -1.1482103E-18
   79.65900       -1.1506902E-18
   79.82050       -1.1558525E-18
   79.98200       -1.1599252E-18
   80.14350       -1.1596213E-18
   80.30500       -1.1541820E-18
   80.46650       -1.1460360E-18
   80.62800       -1.1395174E-18
   80.78950       -1.1382304E-18
   80.95100       -1.1426272E-18
   81.11250       -1.1494171E-18
   81.27400       -1.1534113E-18
   81.43550       -1.1508174E-18
   81.59700       -1.1419346E-18
   81.75850       -1.1314024E-18
   81.92000       -1.1256181E-18
   82.08150       -1.1287617E-18
   82.24300       -1.1398979E-18
   82.40450       -1.1531570E-18
   82.56600       -1.1611231E-18
   82.72750       -1.1594628E-18
   82.88900       -1.1498356E-18
   83.05050       -1.1390691E-18
   83.21200       -1.1349534E-18
   83.37350       -1.1412986E-18
   83.53500       -1.1554417E-18
   83.69650       -1.1698236E-18
   83.85800       -1.1766102E-18
   84.01950       -1.1724392E-18
   84.18100       -1.1604030E-18
   84.34250       -1.1481639E-18
   84.50400       -1.1434222E-18
   84.66550       -1.1494051E-18
   84.82700       -1.1629532E-18
   84.98850       -1.1762749E-18
   85.15000       -1.1814076E-18
   85.31150       -1.1748750E-18
   85.47300       -1.1598277E-18
   85.63450       -1.1443142E-18
   85.79600       -1.1365812E-18
   85.95750       -1.1401335E-18
   86.11900       -1.1515690E-18
   86.28050       -1.1625906E-18
   86.44200       -1.1650840E-18
   86.60350       -1.1562173E-18
   86.76500       -1.1403912E-18
   86.92650       -1.1267254E-18
   87.08800       -1.1234963E-18
   87.24950       -1.1329142E-18
   87.41100       -1.1495709E-18
   87.57250       -1.1636795E-18
   87.73400       -1.1671654E-18
   87.89550       -1.1587456E-18
   88.05700       -1.1447044E-18
   88.21850       -1.1348524E-18
   88.38000       -1.1362840E-18
   88.54150       -1.1489419E-18
   88.70300       -1.1657117E-18
   88.86450       -1.1768404E-18
   89.02600       -1.1758276E-18
   89.18750       -1.1632329E-18
   89.34900       -1.1462623E-18
   89.51050       -1.1345287E-18
   89.67200       -1.1345073E-18
   89.83350       -1.1458497E-18
   89.99500       -1.1616178E-18
   90.15650       -1.1723042E-18
   90.31800       -1.1713492E-18
   90.47950       -1.1589835E-18
   90.64100       -1.1421418E-18
   90.80250       -1.1304597E-18
   90.96400       -1.1306665E-18
   91.12550       -1.1426375E-18
   91.28700       -1.1594305E-18
   91.44850       -1.1713141E-18
   91.61000       -1.1714629E-18
   91.77150       -1.1599768E-18
   91.93300       -1.1438106E-18
   92.09450       -1.1325875E-18
   92.25600       -1.1328007E-18
   92.41750       -1.1439354E-18
   92.57900       -1.1589115E-18
   92.74050       -1.1685176E-18
   92.90200       -1.1670160E-18
   93.06350       -1.1554185E-18
   93.22500       -1.1405708E-18
   93.38650       -1.1308501E-18
   93.54800       -1.1312623E-18
   93.70950       -1.1408233E-18
   93.87100       -1.1535094E-18
   94.03250       -1.1619576E-18
   94.19400       -1.1616677E-18
   94.35550       -1.1533781E-18
   94.51700       -1.1424148E-18
   94.67850       -1.1355127E-18
   94.84000       -1.1369712E-18
   95.00150       -1.1463254E-18
   95.16300       -1.1588007E-18
   95.32450       -1.1681720E-18
   95.48600       -1.1702842E-18
   95.64750       -1.1652157E-18
   95.80900       -1.1569639E-18
   95.97050       -1.1509742E-18
   96.13200       -1.1509992E-18
   96.29350       -1.1570383E-18
   96.45500       -1.1654671E-18
   96.61650       -1.1712305E-18
   96.77800       -1.1708204E-18
   96.93950       -1.1642990E-18
   97.10100       -1.1551714E-18
   97.26250       -1.1482374E-18
   97.42400       -1.1467757E-18
   97.58550       -1.1507723E-18
   97.74700       -1.1571558E-18
   97.90850       -1.1617193E-18
   98.07000       -1.1614892E-18
   98.23150       -1.1562137E-18
   98.39300       -1.1482943E-18
   98.55450       -1.1413428E-18
   98.71600       -1.1381901E-18
   98.87750       -1.1394153E-18
   99.03900       -1.1431591E-18
   99.20050       -1.1463130E-18
   99.36200       -1.1463672E-18
   99.52350       -1.1428128E-18
   99.68500       -1.1373032E-18
   99.84650       -1.1325949E-18
   100.0080       -1.1310308E-18
   100.1695       -1.1334528E-18
   100.3310       -1.1390016E-18
   100.4925       -1.1456892E-18
   100.6540       -1.1513516E-18
   100.8155       -1.1545785E-18
   100.9770       -1.1553156E-18
   101.1385       -1.1548673E-18
   101.3000       -1.1552134E-18
   101.4615       -1.1578713E-18
   101.6230       -1.1628968E-18
   101.7845       -1.1686483E-18
   101.9460       -1.1725468E-18
   102.1075       -1.1724754E-18
   102.2690       -1.1680517E-18
   102.4305       -1.1610211E-18
   102.5920       -1.1544643E-18
   102.7535       -1.1511706E-18
   102.9150       -1.1520584E-18
   103.0765       -1.1556162E-18
   103.2380       -1.1587867E-18
   103.3995       -1.1588227E-18
   103.5610       -1.1549353E-18
   103.7225       -1.1486879E-18
   103.8840       -1.1429433E-18
   104.0455       -1.1401739E-18
   104.2070       -1.1412367E-18
   104.3685       -1.1452151E-18
   104.5300       -1.1501457E-18
   104.6915       -1.1540200E-18
   104.8530       -1.1556123E-18
   105.0145       -1.1549477E-18
   105.1760       -1.1533152E-18
   105.3375       -1.1527184E-18
   105.4990       -1.1548108E-18
   105.6605       -1.1597802E-18
   105.8220       -1.1659282E-18
   105.9835       -1.1704198E-18
   106.1450       -1.1709037E-18
   106.3065       -1.1670142E-18
   106.4680       -1.1607274E-18
   106.6295       -1.1552495E-18
   106.7910       -1.1530760E-18
   106.9525       -1.1544484E-18
   107.1140       -1.1572259E-18
   107.2755       -1.1582994E-18
   107.4370       -1.1556694E-18
   107.5985       -1.1497939E-18
   107.7600       -1.1432974E-18
   107.9215       -1.1392389E-18
   108.0830       -1.1391802E-18
   108.2445       -1.1423717E-18
   108.4060       -1.1464905E-18
   108.5675       -1.1492053E-18
   108.7290       -1.1494126E-18
   108.8905       -1.1474731E-18
   109.0520       -1.1446507E-18
   109.2135       -1.1423736E-18
   109.3750       -1.1417057E-18
   109.5365       -1.1430340E-18
   109.6980       -1.1458750E-18
   109.8595       -1.1489617E-18
   110.0210       -1.1508194E-18
   110.1825       -1.1506947E-18
   110.3440       -1.1492359E-18
   110.5055       -1.1483068E-18
   110.6670       -1.1498785E-18
   110.8285       -1.1546786E-18
   110.9900       -1.1615309E-18
   111.1515       -1.1678751E-18
   111.3130       -1.1711698E-18
   111.4745       -1.1702983E-18
   111.6360       -1.1661161E-18
   111.7975       -1.1608358E-18
   111.9590       -1.1566937E-18
   112.1205       -1.1547891E-18
   112.2820       -1.1547887E-18
   112.4435       -1.1555363E-18
   112.6050       -1.1559424E-18
   112.7665       -1.1554610E-18
   112.9280       -1.1540004E-18
   113.0895       -1.1516942E-18
   113.2510       -1.1489788E-18
   113.4125       -1.1468586E-18
   113.5740       -1.1467776E-18
   113.7355       -1.1497641E-18
   113.8970       -1.1553530E-18
   114.0585       -1.1613105E-18
   114.2200       -1.1647303E-18
   114.3815       -1.1639229E-18
   114.5430       -1.1597075E-18
   114.7045       -1.1550262E-18
   114.8660       -1.1530599E-18
   115.0275       -1.1551399E-18
   115.1890       -1.1598782E-18
   115.3505       -1.1640544E-18
   115.5120       -1.1646176E-18
   115.6735       -1.1605234E-18
   115.8350       -1.1533045E-18
   115.9965       -1.1461250E-18
   116.1580       -1.1419535E-18
   116.3195       -1.1419596E-18
   116.4810       -1.1450231E-18
   116.6425       -1.1485104E-18
   116.8040       -1.1497645E-18
   116.9655       -1.1474780E-18
   117.1270       -1.1423589E-18
   117.2885       -1.1368931E-18
   117.4500       -1.1343162E-18
   117.6115       -1.1370613E-18
   117.7730       -1.1452556E-18
   117.9345       -1.1561341E-18
   118.0960       -1.1650763E-18
   118.2575       -1.1680989E-18
   118.4190       -1.1644193E-18
   118.5805       -1.1572531E-18
   118.7420       -1.1519684E-18