  -27.90000        5.5273578E-18
  -27.73850        5.5387993E-18
  -27.57700        5.5593498E-18
  -27.41550        5.5851500E-18
  -27.25400        5.6117054E-18
  -27.09250        5.6349218E-18
  -26.93100        5.6520283E-18
  -26.76950        5.6621754E-18
  -26.60800        5.6665541E-18
  -26.44650        5.6680198E-18
  -26.28500        5.6703177E-18
  -26.12350        5.6770952E-18
  -25.96200        5.6909509E-18
  -25.80050        5.7127566E-18
  -25.63900        5.7413986E-18
  -25.47750        5.7740139E-18
  -25.31600        5.8066569E-18
  -25.15450        5.8352302E-18
  -24.99300        5.8564640E-18
  -24.83150        5.8687046E-18
  -24.67000        5.8723194E-18
  -24.50850        5.8696240E-18
  -24.34700        5.8643412E-18
  -24.18550        5.8607219E-18
  -24.02400        5.8625388E-18
  -23.86250        5.8721969E-18
  -23.70100        5.8901736E-18
  -23.53950        5.9149196E-18
  -23.37800        5.9432555E-18
  -23.21650        5.9711517E-18
  -23.05500        5.9947210E-18
  -22.89350        6.0111620E-18
  -22.73200        6.0194496E-18
  -22.57050        6.0205807E-18
  -22.40900        6.0173283E-18
  -22.24750        6.0135542E-18
  -22.08600        6.0132445E-18
  -21.92450        6.0195157E-18
  -21.76300        6.0338289E-18
  -21.60150        6.0556164E-18
  -21.44000        6.0824183E-18
  -21.27850        6.1104932E-18
  -21.11700        6.1357458E-18
  -20.95550        6.1547478E-18
  -20.79400        6.1655880E-18
  -20.63250        6.1683483E-18
  -20.47100        6.1650842E-18
  -20.30950        6.1593184E-18
  -20.14800        6.1551713E-18
  -19.98650        6.1563451E-18
  -19.82500        6.1652079E-18
  -19.66350        6.1821994E-18
  -19.50200        6.2057211E-18
  -19.34050        6.2325230E-18
  -19.17900        6.2585060E-18
  -19.01750        6.2797331E-18
  -18.85600        6.2934023E-18
  -18.69450        6.2985362E-18
  -18.53300        6.2962168E-18
  -18.37150        6.2893164E-18
  -18.21000        6.2817845E-18
  -18.04850        6.2776743E-18
  -17.88700        6.2801475E-18
  -17.72550        6.2906941E-18
  -17.56400        6.3087655E-18
  -17.40250        6.3319084E-18
  -17.24100        6.3563739E-18
  -17.07950        6.3780576E-18
  -16.91800        6.3935333E-18
  -16.75650        6.4009287E-18
  -16.59500        6.4004146E-18
  -16.43350        6.3941748E-18
  -16.27200        6.3858707E-18
  -16.11050        6.3797177E-18
  -15.94900        6.3794291E-18
  -15.78750        6.3872732E-18
  -15.62600        6.4034975E-18
  -15.46450        6.4262479E-18
  -15.30300        6.4520096E-18
  -15.14150        6.4764615E-18
  -14.98000        6.4955247E-18
  -14.81850        6.5063620E-18
  -14.65700        6.5080734E-18
  -14.49550        6.5019221E-18
  -14.33400        6.4910190E-18
  -14.17250        6.4795551E-18
  -14.01100        6.4717561E-18
  -13.84950        6.4708350E-18
  -13.68800        6.4782056E-18
  -13.52650        6.4931507E-18
  -13.36500        6.5130282E-18
  -13.20350        6.5339588E-18
  -13.04200        6.5518052E-18
  -12.88050        6.5632083E-18
  -12.71900        6.5664149E-18
  -12.55750        6.5617107E-18
  -12.39600        6.5513523E-18
  -12.23450        6.5390220E-18
  -12.07300        6.5289362E-18
  -11.91150        6.5248131E-18
  -11.75000        6.5289568E-18
  -11.58850        6.5416756E-18
  -11.42700        6.5611834E-18
  -11.26550        6.5840206E-18
  -11.10400        6.6058896E-18
  -10.94250        6.6227016E-18
  -10.78100        6.6315707E-18
  -10.61950        6.6315115E-18
  -10.45800        6.6236657E-18
  -10.29650        6.6110061E-18
  -10.13500        6.5976058E-18
  -9.973500        6.5876379E-18
  -9.812000        6.5843643E-18
  -9.650500        6.5893414E-18
  -9.489000        6.6020473E-18
  -9.327500        6.6200063E-18
  -9.166000        6.6394037E-18
  -9.004500        6.6560325E-18
  -8.843000        6.6663462E-18
  -8.681500        6.6683475E-18
  -8.520000        6.6620928E-18
  -8.358500        6.6496669E-18
  -8.197000        6.6346515E-18
  -8.035500        6.6212098E-18
  -7.874000        6.6130426E-18
  -7.712500        6.6124657E-18
  -7.551000        6.6198470E-18
  -7.389500        6.6335278E-18
  -7.228000        6.6502405E-18
  -7.066500        6.6659173E-18
  -6.905000        6.6766905E-18
  -6.743500        6.6798557E-18
  -6.582000        6.6745543E-18
  -6.420500        6.6620175E-18
  -6.259000        6.6452907E-18
  -6.097500        6.6285027E-18
  -5.936000        6.6158559E-18
  -5.774500        6.6105892E-18
  -5.613000        6.6141837E-18
  -5.451500        6.6260112E-18
  -5.290000        6.6435238E-18
  -5.128500        6.6629121E-18
  -4.967000        6.6800745E-18
  -4.805500        6.6916376E-18
  -4.644000        6.6957781E-18
  -4.482500        6.6926588E-18
  -4.321000        6.6843630E-18
  -4.159500        6.6743582E-18
  -3.998000        6.6666013E-18
  -3.836500        6.6645065E-18
  -3.675000        6.6700234E-18
  -3.513500        6.6830701E-18
  -3.352000        6.7014807E-18
  -3.190500        6.7215022E-18
  -3.029000        6.7387274E-18
  -2.867500        6.7492255E-18
  -2.706000        6.7505643E-18
  -2.544500        6.7424563E-18
  -2.383000        6.7268524E-18
  -2.221500        6.7074653E-18
  -2.060000        6.6888513E-18
  -1.898500        6.6752942E-18
  -1.737000        6.6697641E-18
  -1.575500        6.6732155E-18
  -1.414000        6.6843837E-18
  -1.252500        6.7001365E-18
  -1.091000        6.7162884E-18
 -0.9295000        6.7286945E-18
 -0.7680000        6.7343338E-18
 -0.6065000        6.7321211E-18
 -0.4450000        6.7232082E-18
 -0.2835000        6.7106967E-18
 -0.1220000        6.6988233E-18
  3.9500002E-02    6.6918395E-18
  0.2010000        6.6928772E-18
  0.3625000        6.7031106E-18
  0.5240000        6.7214244E-18
  0.6855000        6.7446607E-18
  0.8470000        6.7683847E-18
   1.008500        6.7879554E-18
   1.170000        6.7996571E-18
   1.331500        6.8016055E-18
   1.493000        6.7942221E-18
   1.654500        6.7801505E-18
   1.816000        6.7636230E-18
   1.977500        6.7494158E-18
   2.139000        6.7416568E-18
   2.300500        6.7427785E-18
   2.462000        6.7529052E-18
   2.623500        6.7698451E-18
   2.785000        6.7896900E-18
   2.946500        6.8078602E-18
   3.108000        6.8203138E-18
   3.269500        6.8245949E-18
   3.431000        6.8204557E-18
   3.592500        6.8099112E-18
   3.754000        6.7967193E-18
   3.915500        6.7854312E-18
   4.077000        6.7802332E-18
   4.238500        6.7838712E-18
   4.400000        6.7969129E-18
   4.561500        6.8175403E-18
   4.723000        6.8419521E-18
   4.884500        6.8652889E-18
   5.046000        6.8828623E-18
   5.207500        6.8913620E-18
   5.369000        6.8897102E-18
   5.530500        6.8793303E-18
   5.692000        6.8637445E-18
   5.853500        6.8476335E-18
   6.015000        6.8356134E-18
   6.176500        6.8310622E-18
   6.338000        6.8353011E-18
   6.499500        6.8473176E-18
   6.661000        6.8640729E-18
   6.822500        6.8813106E-18
   6.984000        6.8946612E-18
   7.145500        6.9007733E-18
   7.307000        6.8982078E-18
   7.468500        6.8878569E-18
   7.630000        6.8727633E-18
   7.791500        6.8573674E-18
   7.953000        6.8463510E-18
   8.114500        6.8433926E-18
   8.276000        6.8501672E-18
   8.437500        6.8658824E-18
   8.599000        6.8874784E-18
   8.760500        6.9104385E-18
   8.922000        6.9299732E-18
   9.083500        6.9422655E-18
   9.245000        6.9454427E-18
   9.406500        6.9400420E-18
   9.568000        6.9288610E-18
   9.729500        6.9162358E-18
   9.891000        6.9069250E-18
   10.05250        6.9048670E-18
   10.21400        6.9121234E-18
   10.37550        6.9282903E-18
   10.53700        6.9505481E-18
   10.69850        6.9743742E-18
   10.86000        6.9947344E-18
   11.02150        7.0074506E-18
   11.18300        7.0103400E-18
   11.34450        7.0038160E-18
   11.50600        6.9907763E-18
   11.66750        6.9758159E-18
   11.82900        6.9639889E-18
   11.99050        6.9594717E-18
   12.15200        6.9644670E-18
   12.31350        6.9786267E-18
   12.47500        6.9991391E-18
   12.63650        7.0214333E-18
   12.79800        7.0403534E-18
   12.95950        7.0515054E-18
   13.12100        7.0524393E-18
   13.28250        7.0433561E-18
   13.44400        7.0271218E-18
   13.60550        7.0085582E-18
   13.76700        6.9931818E-18
   13.92850        6.9857305E-18
   14.09000        6.9888904E-18
   14.25150        7.0025852E-18
   14.41300        7.0240108E-18
   14.57450        7.0483969E-18
   14.73600        7.0702676E-18
   14.89750        7.0848474E-18
   15.05900        7.0892720E-18
   15.22050        7.0832866E-18
   15.38200        7.0693080E-18
   15.54350        7.0518132E-18
   15.70500        7.0362117E-18
   15.86650        7.0274585E-18
   16.02800        7.0287356E-18
   16.18950        7.0405734E-18
   16.35100        7.0606392E-18
   16.51250        7.0843263E-18
   16.67400        7.1059736E-18
   16.83550        7.1204112E-18
   16.99700        7.1243875E-18
   17.15850        7.1174640E-18
   17.32000        7.1021306E-18
   17.48150        7.0831302E-18
   17.64300        7.0662011E-18
   17.80450        7.0565769E-18
   17.96600        7.0576580E-18
   18.12750        7.0701575E-18
   18.28900        7.0919265E-18
   18.45050        7.1184914E-18
   18.61200        7.1441737E-18
   18.77350        7.1635363E-18
   18.93500        7.1727933E-18
   19.09650        7.1708221E-18
   19.25800        7.1594707E-18
   19.41950        7.1430677E-18
   19.58100        7.1272214E-18
   19.74250        7.1172721E-18
   19.90400        7.1168114E-18
   20.06550        7.1267177E-18
   20.22700        7.1449553E-18
   20.38850        7.1671809E-18
   20.55000        7.1879505E-18
   20.71150        7.2021871E-18
   20.87300        7.2065232E-18
   21.03450        7.2001804E-18
   21.19600        7.1851969E-18
   21.35750        7.1659393E-18
   21.51900        7.1480167E-18
   21.68050        7.1368498E-18
   21.84200        7.1362402E-18
   22.00350        7.1473343E-18
   22.16500        7.1682761E-18
   22.32650        7.1946763E-18
   22.48800        7.2207896E-18
   22.64950        7.2410696E-18
   22.81100        7.2516608E-18
   22.97250        7.2513879E-18
   23.13400        7.2419977E-18
   23.29550        7.2276097E-18
   23.45700        7.2135551E-18
   23.61850        7.2049433E-18
   23.78000        7.2053222E-18
   23.94150        7.2157397E-18
   24.10300        7.2344488E-18
   24.26450        7.2573138E-18
   24.42600        7.2788486E-18
   24.58750        7.2936535E-18
   24.74900        7.2978870E-18
   24.91050        7.2903795E-18
   25.07200        7.2730327E-18
   25.23350        7.2503712E-18
   25.39500        7.2283418E-18
   25.55650        7.2127014E-18
   25.71800        7.2074877E-18
   25.87950        7.2139811E-18
   26.04100        7.2304651E-18
   26.20250        7.2527800E-18
   26.36400        7.2754902E-18
   26.52550        7.2933160E-18
   26.68700        7.3024737E-18
   26.84850        7.3016060E-18
   27.01000        7.2920975E-18
   27.17150        7.2777079E-18
   27.33300        7.2635888E-18
   27.49450        7.2549141E-18
   27.65600        7.2554584E-18
   27.81750        7.2665195E-18
   27.97900        7.2865091E-18
   28.14050        7.3113601E-18
   28.30200        7.3356445E-18
   28.46350        7.3540782E-18
   28.62500        7.3629588E-18
   28.78650        7.3611183E-18
   28.94800        7.3501623E-18
   29.10950        7.3339562E-18
   29.27100        7.3175606E-18
   29.43250        7.3059164E-18
   29.59400        7.3026052E-18
   29.75550        7.3089803E-18
   29.91700        7.3238398E-18
   30.07850        7.3437500E-18
   30.24000        7.3639332E-18
   30.40150        7.3795421E-18
   30.56300        7.3869884E-18
   30.72450        7.3849593E-18
   30.88600        7.3747966E-18
   31.04750        7.3601224E-18
   31.20900        7.3457973E-18
   31.37050        7.3365304E-18
   31.53200        7.3355700E-18
   31.69350        7.3438443E-18
   31.85500        7.3597725E-18
   32.01650        7.3797564E-18
   32.17800        7.3991744E-18
   32.33950        7.4136038E-18
   32.50100        7.4199714E-18
   32.66250        7.4173534E-18
   32.82400        7.4072469E-18
   32.98550        7.3932096E-18
   33.14700        7.3799441E-18
   33.30850        7.3720131E-18
   33.47000        7.3725574E-18
   33.63150        7.3823653E-18
   33.79300        7.3996228E-18
   33.95450        7.4204263E-18
   34.11600        7.4399114E-18
   34.27750        7.4536434E-18
   34.43900        7.4588365E-18
   34.60050        7.4550621E-18
   34.76200        7.4442723E-18
   34.92350        7.4301929E-18
   35.08500        7.4172938E-18
   35.24650        7.4096192E-18
   35.40800        7.4097582E-18
   35.56950        7.4181847E-18
   35.73100        7.4331128E-18
   35.89250        7.4509328E-18
   36.05400        7.4671381E-18
   36.21550        7.4775523E-18
   36.37700        7.4795127E-18
   36.53850        7.4726727E-18
   36.70000        7.4591425E-18
   36.86150        7.4429083E-18
   37.02300        7.4287039E-18
   37.18450        7.4206819E-18
   37.34600        7.4212833E-18
   37.50750        7.4306362E-18
   37.66900        7.4466083E-18
   37.83050        7.4654415E-18
   37.99200        7.4827734E-18
   38.15350        7.4947576E-18
   38.31500        7.4990341E-18
   38.47650        7.4953168E-18
   38.63800        7.4854742E-18
   38.79950        7.4730623E-18
   38.96100        7.4623859E-18
   39.12250        7.4573227E-18
   39.28400        7.4602261E-18
   39.44550        7.4712409E-18
   39.60700        7.4882576E-18
   39.76850        7.5075384E-18
   39.93000        7.5248198E-18
   40.09150        7.5365377E-18
   40.25300        7.5408059E-18
   40.41450        7.5378794E-18
   40.57600        7.5299914E-18
   40.73750        7.5206765E-18
   40.89900        7.5137886E-18
   41.06050        7.5124816E-18
   41.22200        7.5183927E-18
   41.38350        7.5312247E-18
   41.54500        7.5488246E-18
   41.70650        7.5677505E-18
   41.86800        7.5841974E-18
   42.02950        7.5950533E-18
   42.19100        7.5987607E-18
   42.35250        7.5957324E-18
   42.51400        7.5881711E-18
   42.67550        7.5793542E-18
   42.83700        7.5726210E-18
   42.99850        7.5703892E-18
   43.16000        7.5735160E-18
   43.32150        7.5811459E-18
   43.48300        7.5910580E-18
   43.64450        7.6003547E-18
   43.80600        7.6062806E-18
   43.96750        7.6069506E-18
   44.12900        7.6018428E-18
   44.29050        7.5919381E-18
   44.45200        7.5794923E-18
   44.61350        7.5674618E-18
   44.77500        7.5587285E-18
   44.93650        7.5552998E-18
   45.09800        7.5577375E-18
   45.25950        7.5650051E-18
   45.42100        7.5747948E-18
   45.58250        7.5842586E-18
   45.74400        7.5908810E-18
   45.90550        7.5932318E-18
   46.06700        7.5913367E-18
   46.22850        7.5865912E-18
   46.39000        7.5812708E-18
   46.55150        7.5778314E-18
   46.71300        7.5782028E-18
   46.87450        7.5832734E-18
   47.03600        7.5926718E-18
   47.19750        7.6048760E-18
   47.35900        7.6176196E-18
   47.52050        7.6285053E-18
   47.68200        7.6356695E-18
   47.84350        7.6383363E-18
   48.00500        7.6370749E-18
   48.16650        7.6336578E-18
   48.32800        7.6305418E-18
   48.48950        7.6301117E-18
   48.65100        7.6339332E-18
   48.81250        7.6422687E-18
   48.97400        7.6540114E-18
   49.13550        7.6670445E-18
   49.29700        7.6789004E-18
   49.45850        7.6874816E-18
   49.62000        7.6916357E-18
   49.78150        7.6914223E-18
   49.94300        7.6880259E-18
   50.10450        7.6833672E-18
   50.26600        7.6795316E-18
   50.42750        7.6781667E-18
   50.58900        7.6800064E-18
   50.75050        7.6846584E-18
   50.91200        7.6907192E-18
   51.07350        7.6962059E-18
   51.23500        7.6991895E-18
   51.39650        7.6984318E-18
   51.55800        7.6938261E-18
   51.71950        7.6864733E-18
   51.88100        7.6783760E-18
   52.04250        7.6718363E-18
   52.20400        7.6687724E-18
   52.36550        7.6701538E-18
   52.52700        7.6757489E-18
   52.68850        7.6842242E-18
   52.85000        7.6935581E-18
   53.01150        7.7016297E-18
   53.17300        7.7068277E-18
   53.33450        7.7085044E-18
   53.49600        7.7071702E-18
   53.65750        7.7043660E-18
   53.81900        7.7022253E-18
   53.98050        7.7028316E-18
   54.14200        7.7075440E-18
   54.30350        7.7165008E-18
   54.46500        7.7284634E-18
   54.62650        7.7410986E-18
   54.78800        7.7516311E-18
   54.94950        7.7576695E-18
   55.11100        7.7579516E-18
   55.27250        7.7527594E-18
   55.43400        7.7438763E-18
   55.59550        7.7340924E-18
   55.75700        7.7264153E-18
   55.91850        7.7232282E-18
   56.08000        7.7256196E-18
   56.24150        7.7330832E-18
   56.40300        7.7436497E-18
   56.56450        7.7544278E-18
   56.72600        7.7624109E-18
   56.88750        7.7653532E-18
   57.04900        7.7624639E-18
   57.21050        7.7547289E-18
   57.37200        7.7447175E-18
   57.53350        7.7359039E-18
   57.69500        7.7316729E-18
   57.85650        7.7342893E-18
   58.01800        7.7441683E-18
   58.17950        7.7596738E-18
   58.34100        7.7775318E-18
   58.50250        7.7937454E-18
   58.66400        7.8047311E-18
   58.82550        7.8083360E-18
   58.98700        7.8044458E-18
   59.14850        7.7950093E-18
   59.31000        7.7834925E-18
   59.47150        7.7739129E-18
   59.63300        7.7697331E-18
   59.79450        7.7728905E-18
   59.95600        7.7832410E-18
   60.11750        7.7985629E-18
   60.27900        7.8151346E-18
   60.44050        7.8287624E-18
   60.60200        7.8359647E-18
   60.76350        7.8349985E-18
   60.92500        7.8264074E-18
   61.08650        7.8129161E-18
   61.24800        7.7986853E-18
   61.40950        7.7881396E-18
   61.57100        7.7847043E-18
   61.73250        7.7898220E-18
   61.89400        7.8025383E-18
   62.05550        7.8197577E-18
   62.21700        7.8371070E-18
   62.37850        7.8501450E-18
   62.54000        7.8556160E-18
   62.70150        7.8523784E-18
   62.86300        7.8417764E-18
   63.02450        7.8273272E-18
   63.18600        7.8137888E-18
   63.34750        7.8058445E-18
   63.50900        7.8067685E-18
   63.67050        7.8174441E-18
   63.83200        7.8360490E-18
   63.99350        7.8585095E-18
   64.15500        7.8796067E-18
   64.31650        7.8944265E-18
   64.47800        7.8997254E-18
   64.63950        7.8948227E-18
   64.80100        7.8817623E-18
   64.96250        7.8647282E-18
   65.12400        7.8488679E-18
   65.28550        7.8388664E-18
   65.44700        7.8376430E-18
   65.60850        7.8455351E-18
   65.77000        7.8601804E-18
   65.93150        7.8771508E-18
   66.09300        7.8911773E-18
   66.25450        7.8976550E-18
   66.41600        7.8939930E-18
   66.57750        7.8804289E-18
   66.73900        7.8600389E-18
   66.90050        7.8379317E-18
   67.06200        7.8198537E-18
   67.22350        7.8106074E-18
   67.38500        7.8127449E-18
   67.54650        7.8259103E-18
   67.70800        7.8469827E-18
   67.86950        7.8709693E-18
   68.03100        7.8923651E-18
   68.19250        7.9066092E-18
   68.35400        7.9112621E-18
   68.51550        7.9065976E-18
   68.67700        7.8954737E-18
   68.83850        7.8825200E-18
   69.00000        7.8728387E-18
   69.16150        7.8705780E-18
   69.32300        7.8777489E-18
   69.48450        7.8936390E-18
   69.64600        7.9149927E-18
   69.80750        7.9369080E-18
   69.96900        7.9542101E-18
   70.13050        7.9628864E-18
   70.29200        7.9611808E-18
   70.45350        7.9500478E-18
   70.61500        7.9328606E-18
   70.77650        7.9144724E-18
   70.93800        7.8999049E-18
   71.09950        7.8930302E-18
   71.26100        7.8955730E-18
   71.42250        7.9067027E-18
   71.58400        7.9233009E-18
   71.74550        7.9408487E-18
   71.90700        7.9546758E-18
   72.06850        7.9612511E-18
   72.23000        7.9591368E-18
   72.39150        7.9493480E-18
   72.55300        7.9350146E-18
   72.71450        7.9204570E-18
   72.87600        7.9099477E-18
   73.03750        7.9065331E-18
   73.19900        7.9112356E-18
   73.36050        7.9228434E-18
   73.52200        7.9383175E-18
   73.68350        7.9536882E-18
   73.84500        7.9651612E-18
   74.00650        7.9701631E-18
   74.16800        7.9680315E-18
   74.32950        7.9601708E-18
   74.49100        7.9496375E-18
   74.65250        7.9402721E-18
   74.81400        7.9356019E-18
   74.97550        7.9378601E-18
   75.13700        7.9473776E-18
   75.29850        7.9625456E-18
   75.46000        7.9803250E-18
   75.62150        7.9971350E-18
   75.78300        8.0098480E-18
   75.94450        8.0165853E-18
   76.10600        8.0171238E-18
   76.26750        8.0128308E-18
   76.42900        8.0061835E-18
   76.59050        8.0000318E-18
   76.75200        7.9968017E-18
   76.91350        7.9978522E-18
   77.07500        8.0031213E-18
   77.23650        8.0111756E-18
   77.39800        8.0196294E-18
   77.55950        8.0258481E-18
   77.72100        8.0277184E-18
   77.88250        8.0242740E-18
   78.04400        8.0159724E-18
   78.20550        8.0045565E-18
   78.36700        7.9925409E-18
   78.52850        7.9825096E-18
   78.69000        7.9764216E-18
   78.85150        7.9751428E-18
   79.01300        7.9782976E-18
   79.17450        7.9844568E-18
   79.33600        7.9915764E-18
   79.49750        7.9975594E-18
   79.65900        8.0007978E-18
   79.82050        8.0005686E-18
   79.98200        7.9971863E-18
   80.14350        7.9918766E-18
   80.30500        7.9864040E-18
   80.46650        7.9825485E-18
   80.62800        7.9815989E-18
   80.78950        7.9839994E-18
   80.95100        7.9892718E-18
   81.11250        7.9962061E-18
   81.27400        8.0032570E-18
   81.43550        8.0089960E-18
   81.59700        8.0124875E-18
   81.75850        8.0134942E-18
   81.92000        8.0124842E-18
   82.08150        8.0104667E-18
   82.24300        8.0087230E-18
   82.40450        8.0084930E-18
   82.56600        8.0106809E-18
   82.72750        8.0156556E-18
   82.88900        8.0231813E-18
   83.05050        8.0324953E-18
   83.21200        8.0425348E-18
   83.37350        8.0522203E-18
   83.53500        8.0607171E-18
   83.69650        8.0675901E-18
   83.85800        8.0728245E-18
   84.01950        8.0767197E-18
   84.18100        8.0797431E-18
   84.34250        8.0823983E-18
   84.50400        8.0851445E-18
   84.66550        8.0883557E-18
   84.82700        8.0922889E-18
   84.98850        8.0970427E-18
   85.15000        8.1025038E-18
   85.31150        8.1083288E-18
   85.47300        8.1139883E-18
   85.63450        8.1188728E-18
   85.79600        8.1224529E-18
   85.95750        8.1244133E-18
   86.11900        8.1247210E-18
   86.28050        8.1236242E-18
   86.44200        8.1215860E-18
   86.60350        8.1191797E-18
   86.76500        8.1169893E-18
   86.92650        8.1154979E-18
   87.08800        8.1149702E-18
   87.24950        8.1153548E-18
   87.41100        8.1162308E-18
   87.57250        8.1168529E-18
   87.73400        8.1163168E-18
   87.89550        8.1138312E-18
   88.05700        8.1089963E-18
   88.21850        8.1020000E-18
   88.38000        8.0936422E-18
   88.54150        8.0851718E-18
   88.70300        8.0779729E-18
   88.86450        8.0732232E-18
   89.02600        8.0715978E-18
   89.18750        8.0731231E-18
   89.34900        8.0771805E-18
   89.51050        8.0826605E-18
   89.67200        8.0882423E-18
   89.83350        8.0927182E-18
   89.99500        8.0953222E-18
   90.15650        8.0959707E-18
   90.31800        8.0953263E-18
   90.47950        8.0946497E-18
   90.64100        8.0954281E-18
   90.80250        8.0988923E-18
   90.96400        8.1055618E-18
   91.12550        8.1149776E-18
   91.28700        8.1257310E-18
   91.44850        8.1357953E-18
   91.61000        8.1430654E-18
   91.77150        8.1459407E-18
   91.93300        8.1437908E-18
   92.09450        8.1371651E-18
   92.25600        8.1277030E-18
   92.41750        8.1177595E-18
   92.57900        8.1098392E-18
   92.74050        8.1059564E-18
   92.90200        8.1070954E-18
   93.06350        8.1129097E-18
   93.22500        8.1217688E-18
   93.38650        8.1311763E-18
   93.54800        8.1384812E-18
   93.70950        8.1416675E-18
   93.87100        8.1400015E-18
   94.03250        8.1343113E-18
   94.19400        8.1267964E-18
   94.35550        8.1204205E-18
   94.51700        8.1180622E-18
   94.67850        8.1216786E-18
   94.84000        8.1317256E-18
   95.00150        8.1469978E-18
   95.16300        8.1649087E-18
   95.32450        8.1821488E-18
   95.48600        8.1955301E-18
   95.64750        8.2028251E-18
   95.80900        8.2033561E-18
   95.97050        8.1982069E-18
   96.13200        8.1899459E-18
   96.29350        8.1819421E-18
   96.45500        8.1774281E-18
   96.61650        8.1785746E-18
   96.77800        8.1858513E-18
   96.93950        8.1978744E-18
   97.10100        8.2117958E-18
   97.26250        8.2241109E-18
   97.42400        8.2316564E-18
   97.58550        8.2325002E-18
   97.74700        8.2264642E-18
   97.90850        8.2151691E-18
   98.07000        8.2015843E-18
   98.23150        8.1892328E-18
   98.39300        8.1812580E-18
   98.55450        8.1795929E-18
   98.71600        8.1844393E-18
   98.87750        8.1942116E-18
   99.03900        8.2059444E-18
   99.20050        8.2161087E-18
   99.36200        8.2215913E-18
   99.52350        8.2205904E-18
   99.68500        8.2131483E-18
   99.84650        8.2011583E-18
   100.0080        8.1878407E-18
   100.1695        8.1768284E-18
   100.3310        8.1711482E-18
   100.4925        8.1723848E-18
   100.6540        8.1802687E-18
   100.8155        8.1927897E-18
   100.9770        8.2067765E-18
   101.1385        8.2187789E-18
   101.3000        8.2259960E-18
   101.4615        8.2270201E-18
   101.6230        8.2221910E-18
   101.7845        8.2134866E-18
   101.9460        8.2039666E-18
   102.1075        8.1969198E-18
   102.2690        8.1949428E-18
   102.4305        8.1992045E-18
   102.5920        8.2091199E-18
   102.7535        8.2225260E-18
   102.9150        8.2363168E-18
   103.0765        8.2473505E-18
   103.2380        8.2533385E-18
   103.3995        8.2534783E-18
   103.5610        8.2486260E-18
   103.7225        8.2409920E-18
   103.8840        8.2334721E-18
   104.0455        8.2288126E-18
   104.2070        8.2288647E-18
   104.3685        8.2341148E-18
   104.5300        8.2435943E-18
   104.6915        8.2551806E-18
   104.8530        8.2661962E-18
   105.0145        8.2741313E-18
   105.1760        8.2773110E-18
   105.3375        8.2753192E-18
   105.4990        8.2690797E-18
   105.6605        8.2605581E-18
   105.8220        8.2521755E-18
   105.9835        8.2461122E-18
   106.1450        8.2436977E-18
   106.3065        8.2450783E-18
   106.4680        8.2492514E-18
   106.6295        8.2544403E-18
   106.7910        8.2586763E-18
   106.9525        8.2603943E-18
   107.1140        8.2588781E-18
   107.2755        8.2544238E-18
   107.4370        8.2482116E-18
   107.5985        8.2419408E-18
   107.7600        8.2373541E-18
   107.9215        8.2357774E-18
   108.0830        8.2377858E-18
   108.2445        8.2430906E-18
   108.4060        8.2506493E-18
   108.5675        8.2589898E-18
   108.7290        8.2666412E-18
   108.8905        8.2725547E-18
   109.0520        8.2763755E-18
   109.2135        8.2784782E-18
   109.3750        8.2797553E-18
   109.5365        8.2812409E-18
   109.6980        8.2837059E-18
   109.8595        8.2873919E-18
   110.0210        8.2919587E-18
   110.1825        8.2966612E-18
   110.3440        8.3006582E-18
   110.5055        8.3033325E-18
   110.6670        8.3044963E-18
   110.8285        8.3044343E-18
   110.9900        8.3037816E-18
   111.1515        8.3032977E-18
   111.3130        8.3036170E-18
   111.4745        8.3050489E-18
   111.6360        8.3074601E-18
   111.7975        8.3103163E-18
   111.9590        8.3128434E-18
   112.1205        8.3143100E-18
   112.2820        8.3143348E-18
   112.4435        8.3131114E-18
   112.6050        8.3114314E-18
   112.7665        8.3104793E-18
   112.9280        8.3114148E-18
   113.0895        8.3149196E-18
   113.2510        8.3208579E-18
   113.4125        8.3282141E-18
   113.5740        8.3353534E-18
   113.7355        8.3405018E-18
   113.8970        8.3423092E-18
   114.0585        8.3402768E-18
   114.2200        8.3349481E-18
   114.3815        8.3277963E-18
   114.5430        8.3208546E-18
   114.7045        8.3162009E-18
   114.8660        8.3153919E-18
   115.0275        8.3190092E-18
   115.1890        8.3264207E-18
   115.3505        8.3358555E-18
   115.5120        8.3448247E-18
   115.6735        8.3507994E-18
   115.8350        8.3519847E-18
   115.9965        8.3479233E-18
   116.1580        8.3397218E-18
   116.3195        8.3297907E-18
   116.4810        8.3211582E-18
   116.6425        8.3165715E-18
   116.8040        8.3176692E-18
   116.9655        8.3244884E-18
   117.1270        8.3354370E-18
   117.2885        8.3477066E-18
   117.4500        8.3580223E-18
   117.6115        8.3635123E-18
   117.7730        8.3624891E-18
   117.9345        8.3549518E-18
   118.0960        8.3426773E-18
   118.2575        8.3288311E-18
   118.4190        8.3171637E-18
   118.5805        8.3109682E-18
   118.7420        8.3121031E-18