  -27.90000        9.4951798E-18
  -27.73850        9.5001106E-18
  -27.57700        9.5073162E-18
  -27.41550        9.5133695E-18
  -27.25400        9.5163275E-18
  -27.09250        9.5169189E-18
  -26.93100        9.5178536E-18
  -26.76950        9.5217612E-18
  -26.60800        9.5292232E-18
  -26.44650        9.5382668E-18
  -26.28500        9.5456825E-18
  -26.12350        9.5492418E-18
  -25.96200        9.5492451E-18
  -25.80050        9.5483336E-18
  -25.63900        9.5496744E-18
  -25.47750        9.5547939E-18
  -25.31600        9.5625561E-18
  -25.15450        9.5699941E-18
  -24.99300        9.5743980E-18
  -24.83150        9.5752012E-18
  -24.67000        9.5743509E-18
  -24.50850        9.5749200E-18
  -24.34700        9.5789459E-18
  -24.18550        9.5860100E-18
  -24.02400        9.5935555E-18
  -23.86250        9.5986998E-18
  -23.70100        9.6002623E-18
  -23.53950        9.5995791E-18
  -23.37800        9.5995427E-18
  -23.21650        9.6025354E-18
  -23.05500        9.6087376E-18
  -22.89350        9.6159829E-18
  -22.73200        9.6212768E-18
  -22.57050        9.6229155E-18
  -22.40900        9.6216962E-18
  -22.24750        9.6203851E-18
  -22.08600        9.6217914E-18
  -21.92450        9.6268148E-18
  -21.76300        9.6338086E-18
  -21.60150        9.6397337E-18
  -21.44000        9.6422781E-18
  -21.27850        9.6414692E-18
  -21.11700        9.6396444E-18
  -20.95550        9.6398040E-18
  -20.79400        9.6434991E-18
  -20.63250        9.6497401E-18
  -20.47100        9.6556884E-18
  -20.30950        9.6586555E-18
  -20.14800        9.6580078E-18
  -19.98650        9.6556305E-18
  -19.82500        9.6546155E-18
  -19.66350        9.6570797E-18
  -19.50200        9.6626408E-18
  -19.34050        9.6686205E-18
  -19.17900        9.6718705E-18
  -19.01750        9.6709524E-18
  -18.85600        9.6671697E-18
  -18.69450        9.6637286E-18
  -18.53300        9.6635921E-18
  -18.37150        9.6674972E-18
  -18.21000        9.6735017E-18
  -18.04850        9.6783589E-18
  -17.88700        9.6797585E-18
  -17.72550        9.6778841E-18
  -17.56400        9.6752032E-18
  -17.40250        9.6746656E-18
  -17.24100        9.6775607E-18
  -17.07950        9.6825660E-18
  -16.91800        9.6866448E-18
  -16.75650        9.6871866E-18
  -16.59500        9.6838994E-18
  -16.43350        9.6791075E-18
  -16.27200        9.6762397E-18
  -16.11050        9.6775094E-18
  -15.94900        9.6824072E-18
  -15.78750        9.6880196E-18
  -15.62600        9.6909850E-18
  -15.46450        9.6897260E-18
  -15.30300        9.6854495E-18
  -15.14150        9.6812309E-18
  -14.98000        9.6798636E-18
  -14.81850        9.6819721E-18
  -14.65700        9.6857010E-18
  -14.49550        9.6881792E-18
  -14.33400        9.6876986E-18
  -14.17250        9.6850334E-18
  -14.01100        9.6829539E-18
  -13.84950        9.6842327E-18
  -13.68800        9.6895548E-18
  -13.52650        9.6968241E-18
  -13.36500        9.7023885E-18
  -13.20350        9.7034010E-18
  -13.04200        9.6996886E-18
  -12.88050        9.6938504E-18
  -12.71900        9.6895085E-18
  -12.55750        9.6889138E-18
  -12.39600        9.6915682E-18
  -12.23450        9.6947900E-18
  -12.07300        9.6957909E-18
  -11.91150        9.6937776E-18
  -11.75000        9.6905615E-18
  -11.58850        9.6892256E-18
  -11.42700        9.6917940E-18
  -11.26550        9.6975859E-18
  -11.10400        9.7034672E-18
  -10.94250        9.7059181E-18
  -10.78100        9.7034887E-18
  -10.61950        9.6979259E-18
  -10.45800        9.6931291E-18
  -10.29650        9.6925988E-18
  -10.13500        9.6971144E-18
  -9.973500        9.7042298E-18
  -9.812000        9.7099581E-18
  -9.650500        9.7114834E-18
  -9.489000        9.7090027E-18
  -9.327500        9.7054565E-18
  -9.166000        9.7043233E-18
  -9.004500        9.7070671E-18
  -8.843000        9.7120624E-18
  -8.681500        9.7157806E-18
  -8.520000        9.7154208E-18
  -8.358500        9.7111012E-18
  -8.197000        9.7060215E-18
  -8.035500        9.7043878E-18
  -7.874000        9.7085064E-18
  -7.712500        9.7170611E-18
  -7.551000        9.7258184E-18
  -7.389500        9.7303340E-18
  -7.228000        9.7288277E-18
  -7.066500        9.7232690E-18
  -6.905000        9.7179387E-18
  -6.743500        9.7164911E-18
  -6.582000        9.7195600E-18
  -6.420500        9.7245685E-18
  -6.259000        9.7278285E-18
  -6.097500        9.7273983E-18
  -5.936000        9.7246091E-18
  -5.774500        9.7231557E-18
  -5.613000        9.7263428E-18
  -5.451500        9.7344848E-18
  -5.290000        9.7443324E-18
  -5.128500        9.7510383E-18
  -4.967000        9.7513386E-18
  -4.805500        9.7457700E-18
  -4.644000        9.7383419E-18
  -4.482500        9.7338900E-18
  -4.321000        9.7349133E-18
  -4.159500        9.7400873E-18
  -3.998000        9.7454358E-18
  -3.836500        9.7472945E-18
  -3.675000        9.7449246E-18
  -3.513500        9.7409178E-18
  -3.352000        9.7391286E-18
  -3.190500        9.7416606E-18
  -3.029000        9.7471291E-18
  -2.867500        9.7515164E-18
  -2.706000        9.7510813E-18
  -2.544500        9.7452390E-18
  -2.383000        9.7373104E-18
  -2.221500        9.7325153E-18
  -2.060000        9.7345386E-18
  -1.898500        9.7430296E-18
  -1.737000        9.7538077E-18
  -1.575500        9.7616469E-18
  -1.414000        9.7637116E-18
  -1.252500        9.7612515E-18
  -1.091000        9.7584093E-18
 -0.9295000        9.7590190E-18
 -0.7680000        9.7637364E-18
 -0.6065000        9.7695639E-18
 -0.4450000        9.7721298E-18
 -0.2835000        9.7690725E-18
 -0.1220000        9.7620489E-18
  3.9500002E-02    9.7558459E-18
  0.2010000        9.7551246E-18
  0.3625000        9.7610836E-18
  0.5240000        9.7704208E-18
  0.6855000        9.7774163E-18
  0.8470000        9.7777521E-18
   1.008500        9.7714333E-18
   1.170000        9.7627843E-18
   1.331500        9.7574978E-18
   1.493000        9.7588022E-18
   1.654500        9.7654139E-18
   1.816000        9.7726658E-18
   1.977500        9.7759753E-18
   2.139000        9.7741473E-18
   2.300500        9.7701586E-18
   2.462000        9.7688583E-18
   2.623500        9.7732688E-18
   2.785000        9.7821610E-18
   2.946500        9.7907116E-18
   3.108000        9.7938309E-18
   3.269500        9.7898240E-18
   3.431000        9.7817755E-18
   3.592500        9.7756139E-18
   3.754000        9.7761573E-18
   3.915500        9.7838807E-18
   4.077000        9.7946382E-18
   4.238500        9.8025394E-18
   4.400000        9.8039291E-18
   4.561500        9.7997105E-18
   4.723000        9.7944239E-18
   4.884500        9.7928143E-18
   5.046000        9.7963885E-18
   5.207500        9.8024443E-18
   5.369000        9.8062295E-18
   5.530500        9.8046446E-18
   5.692000        9.7987484E-18
   5.853500        9.7932030E-18
   6.015000        9.7929904E-18
   6.176500        9.7997220E-18
   6.338000        9.8102190E-18
   6.499500        9.8184329E-18
   6.661000        9.8194437E-18
   6.822500        9.8127493E-18
   6.984000        9.8025692E-18
   7.145500        9.7949674E-18
   7.307000        9.7938185E-18
   7.468500        9.7984540E-18
   7.630000        9.8045743E-18
   7.791500        9.8076795E-18
   7.953000        9.8064751E-18
   8.114500        9.8037595E-18
   8.276000        9.8041483E-18
   8.437500        9.8103124E-18
   8.599000        9.8205323E-18
   8.760500        9.8294459E-18
   8.922000        9.8315933E-18
   9.083500        9.8252935E-18
   9.245000        9.8141009E-18
   9.406500        9.8047132E-18
   9.568000        9.8027148E-18
   9.729500        9.8090493E-18
   9.891000        9.8196348E-18
   10.05250        9.8283284E-18
   10.21400        9.8311309E-18
   10.37550        9.8286734E-18
   10.53700        9.8253001E-18
   10.69850        9.8255185E-18
   10.86000        9.8304377E-18
   11.02150        9.8368335E-18
   11.18300        9.8395301E-18
   11.34450        9.8353868E-18
   11.50600        9.8259784E-18
   11.66750        9.8169315E-18
   11.82900        9.8142771E-18
   11.99050        9.8203180E-18
   12.15200        9.8319043E-18
   12.31350        9.8423806E-18
   12.47500        9.8458862E-18
   12.63650        9.8410778E-18
   12.79800        9.8317546E-18
   12.95950        9.8240263E-18
   13.12100        9.8220964E-18
   13.28250        9.8256302E-18
   13.44400        9.8304816E-18
   13.60550        9.8321442E-18
   13.76700        9.8293260E-18
   13.92850        9.8250263E-18
   14.09000        9.8243001E-18
   14.25150        9.8303501E-18
   14.41300        9.8417991E-18
   14.57450        9.8532001E-18
   14.73600        9.8585172E-18
   14.89750        9.8551795E-18
   15.05900        9.8458630E-18
   15.22050        9.8367367E-18
   15.38200        9.8333742E-18
   15.54350        9.8371726E-18
   15.70500        9.8447231E-18
   15.86650        9.8504853E-18
   16.02800        9.8507905E-18
   16.18950        9.8463047E-18
   16.35100        9.8412506E-18
   16.51250        9.8400496E-18
   16.67400        9.8438794E-18
   16.83550        9.8497276E-18
   16.99700        9.8526186E-18
   17.15850        9.8494298E-18
   17.32000        9.8414748E-18
   17.48150        9.8339144E-18
   17.64300        9.8323221E-18
   17.80450        9.8387856E-18
   17.96600        9.8503256E-18
   18.12750        9.8607705E-18
   18.28900        9.8648336E-18
   18.45050        9.8615530E-18
   18.61200        9.8547138E-18
   18.77350        9.8500345E-18
   18.93500        9.8511280E-18
   19.09650        9.8571317E-18
   19.25800        9.8636242E-18
   19.41950        9.8660942E-18
   19.58100        9.8634017E-18
   19.74250        9.8586802E-18
   19.90400        9.8570117E-18
   20.06550        9.8615554E-18
   20.22700        9.8709547E-18
   20.38850        9.8799751E-18
   20.55000        9.8829984E-18
   20.71150        9.8779543E-18
   20.87300        9.8679115E-18
   21.03450        9.8591674E-18
   21.19600        9.8571333E-18
   21.35750        9.8628483E-18
   21.51900        9.8725139E-18
   21.68050        9.8802836E-18
   21.84200        9.8823003E-18
   22.00350        9.8791272E-18
   22.16500        9.8749235E-18
   22.32650        9.8740823E-18
   22.48800        9.8778302E-18
   22.64950        9.8832871E-18
   22.81100        9.8856603E-18
   22.97250        9.8819512E-18
   23.13400        9.8734586E-18
   23.29550        9.8651942E-18
   23.45700        9.8625613E-18
   23.61850        9.8676220E-18
   23.78000        9.8775837E-18
   23.94150        9.8866099E-18
   24.10300        9.8896755E-18
   24.26450        9.8858150E-18
   24.42600        9.8785242E-18
   24.58750        9.8731318E-18
   24.74900        9.8730822E-18
   24.91050        9.8777591E-18
   25.07200        9.8833202E-18
   25.23350        9.8858125E-18
   25.39500        9.8842103E-18
   25.55650        9.8811249E-18
   25.71800        9.8806931E-18
   25.87950        9.8852335E-18
   26.04100        9.8931695E-18
   26.20250        9.8998307E-18
   26.36400        9.9006100E-18
   26.52550        9.8942655E-18
   26.68700        9.8839828E-18
   26.84850        9.8754082E-18
   27.01000        9.8729945E-18
   27.17150        9.8772049E-18
   27.33300        9.8844725E-18
   27.49450        9.8898707E-18
   27.65600        9.8905332E-18
   27.81750        9.8874032E-18
   27.97900        9.8841416E-18
   28.14050        9.8841259E-18
   28.30200        9.8877878E-18
   28.46350        9.8922935E-18
   28.62500        9.8937716E-18
   28.78650        9.8904282E-18
   28.94800        9.8842086E-18
   29.10950        9.8797179E-18
   29.27100        9.8810910E-18
   29.43250        9.8890228E-18
   29.59400        9.9000748E-18
   29.75550        9.9087916E-18
   29.91700        9.9111656E-18
   30.07850        9.9070859E-18
   30.24000        9.9001178E-18
   30.40150        9.8948859E-18
   30.56300        9.8939553E-18
   30.72450        9.8964112E-18
   30.88600        9.8990127E-18
   31.04750        9.8989506E-18
   31.20900        9.8961035E-18
   31.37050        9.8931355E-18
   31.53200        9.8934027E-18
   31.69350        9.8982508E-18
   31.85500        9.9057376E-18
   32.01650        9.9117637E-18
   32.17800        9.9128224E-18
   32.33950        9.9084434E-18
   32.50100        9.9015753E-18
   32.66250        9.8966618E-18
   32.82400        9.8967578E-18
   32.98550        9.9016853E-18
   33.14700        9.9084136E-18
   33.30850        9.9132865E-18
   33.47000        9.9144454E-18
   33.63150        9.9127538E-18
   33.79300        9.9107115E-18
   33.95450        9.9103078E-18
   34.11600        9.9114700E-18
   34.27750        9.9122558E-18
   34.43900        9.9105601E-18
   34.60050        9.9060139E-18
   34.76200        9.9005851E-18
   34.92350        9.8974228E-18
   35.08500        9.8987389E-18
   35.24650        9.9042661E-18
   35.40800        9.9113939E-18
   35.56950        9.9168508E-18
   35.73100        9.9187583E-18
   35.89250        9.9176342E-18
   36.05400        9.9157383E-18
   36.21550        9.9153470E-18
   36.37700        9.9172388E-18
   36.53850        9.9204226E-18
   36.70000        9.9231895E-18
   36.86150        9.9245560E-18
   37.02300        9.9249919E-18
   37.18450        9.9258960E-18
   37.34600        9.9282841E-18
   37.50750        9.9317467E-18
   37.66900        9.9344987E-18
   37.83050        9.9345318E-18
   37.99200        9.9310196E-18
   38.15350        9.9249878E-18
   38.31500        9.9187550E-18
   38.47650        9.9145579E-18
   38.63800        9.9133163E-18
   38.79950        9.9143287E-18
   38.96100        9.9160005E-18
   39.12250        9.9169923E-18
   39.28400        9.9169592E-18
   39.44550        9.9164554E-18
   39.60700        9.9162313E-18
   39.76850        9.9165630E-18
   39.93000        9.9171511E-18
   40.09150        9.9175920E-18
   40.25300        9.9179609E-18
   40.41450        9.9189841E-18
   40.57600        9.9215997E-18
   40.73750        9.9262600E-18
   40.89900        9.9324829E-18
   41.06050        9.9390068E-18
   41.22200        9.9444241E-18
   41.38350        9.9478378E-18
   41.54500        9.9491166E-18
   41.70650        9.9486791E-18
   41.86800        9.9470826E-18
   42.02950        9.9447979E-18
   42.19100        9.9422742E-18
   42.35250        9.9401211E-18
   42.51400        9.9390573E-18
   42.67550        9.9395379E-18
   42.83700        9.9413014E-18
   42.99850        9.9432536E-18
   43.16000        9.9439426E-18
   43.32150        9.9423999E-18
   43.48300        9.9387934E-18
   43.64450        9.9344019E-18
   43.80600        9.9308715E-18
   43.96750        9.9292560E-18
   44.12900        9.9295240E-18
   44.29050        9.9308682E-18
   44.45200        9.9325317E-18
   44.61350        9.9344747E-18
   44.77500        9.9372756E-18
   44.93650        9.9413436E-18
   45.09800        9.9460718E-18
   45.25950        9.9497395E-18
   45.42100        9.9504178E-18
   45.58250        9.9473432E-18
   45.74400        9.9417622E-18
   45.90550        9.9364939E-18
   46.06700        9.9343614E-18
   46.22850        9.9364873E-18
   46.39000        9.9416125E-18
   46.55150        9.9469627E-18
   46.71300        9.9500638E-18
   46.87450        9.9502458E-18
   47.03600        9.9487965E-18
   47.19750        9.9476906E-18
   47.35900        9.9479280E-18
   47.52050        9.9487643E-18
   47.68200        9.9484764E-18
   47.84350        9.9460644E-18
   48.00500        9.9425348E-18
   48.16650        9.9406314E-18
   48.32800        9.9430278E-18
   48.48950        9.9502160E-18
   48.65100        9.9596888E-18
   48.81250        9.9671641E-18
   48.97400        9.9691692E-18
   49.13550        9.9652351E-18
   49.29700        9.9581759E-18
   49.45850        9.9522144E-18
   49.62000        9.9502549E-18
   49.78150        9.9522128E-18
   49.94300        9.9555347E-18
   50.10450        9.9574555E-18
   50.26600        9.9572313E-18
   50.42750        9.9566581E-18
   50.58900        9.9584423E-18
   50.75050        9.9636825E-18
   50.91200        9.9704505E-18
   51.07350        9.9747113E-18
   51.23500        9.9730826E-18
   51.39650        9.9654841E-18
   51.55800        9.9556820E-18
   51.71950        9.9491439E-18
   51.88100        9.9495840E-18
   52.04250        9.9565513E-18
   52.20400        9.9657686E-18
   52.36550        9.9720006E-18
   52.52700        9.9724382E-18
   52.68850        9.9682452E-18
   52.85000        9.9632391E-18
   53.01150        9.9607683E-18
   53.17300        9.9611670E-18
   53.33450        9.9616807E-18
   53.49600        9.9589262E-18
   53.65750        9.9519870E-18
   53.81900        9.9437259E-18
   53.98050        9.9391698E-18
   54.14200        9.9420012E-18
   54.30350        9.9516809E-18
   54.46500        9.9633690E-18
   54.62650        9.9708798E-18
   54.78800        9.9706788E-18
   54.94950        9.9641639E-18
   55.11100        9.9566051E-18
   55.27250        9.9535148E-18
   55.43400        9.9569931E-18
   55.59550        9.9646263E-18
   55.75700        9.9716184E-18
   55.91850        9.9745061E-18
   56.08000        9.9736839E-18
   56.24150        9.9728691E-18
   56.40300        9.9759429E-18
   56.56450        9.9835886E-18
   56.72600        9.9923029E-18
   56.88750        9.9966779E-18
   57.04900        9.9933526E-18
   57.21050        9.9837573E-18
   57.37200        9.9735565E-18
   57.53350        9.9690327E-18
   57.69500        9.9728964E-18
   57.85650        9.9824644E-18
   58.01800        9.9915088E-18
   58.17950        9.9944751E-18
   58.34100        9.9901175E-18
   58.50250        9.9819979E-18
   58.66400        9.9756261E-18
   58.82550        9.9743754E-18
   58.98700        9.9771895E-18
   59.14850        9.9796975E-18
   59.31000        9.9778628E-18
   59.47150        9.9713810E-18
   59.63300        9.9642276E-18
   59.79450        9.9618709E-18
   59.95600        9.9671360E-18
   60.11750        9.9777661E-18
   60.27900        9.9875665E-18
   60.44050        9.9904393E-18
   60.60200        9.9845225E-18
   60.76350        9.9735011E-18
   60.92500        9.9641746E-18
   61.08650        9.9619586E-18
   61.24800        9.9674693E-18
   61.40950        9.9765154E-18
   61.57100        9.9833702E-18
   61.73250        9.9848790E-18
   61.89400        9.9824396E-18
   62.05550        9.9805090E-18
   62.21700        9.9828507E-18
   62.37850        9.9893954E-18
   62.54000        9.9960840E-18
   62.70150        9.9978574E-18
   62.86300        9.9925957E-18
   63.02450        9.9830865E-18
   63.18600        9.9754706E-18
   63.34750        9.9751844E-18
   63.50900        9.9832271E-18
   63.67050        9.9953924E-18
   63.83200        1.0005020E-17
   63.99350        1.0007346E-17
   64.15500        1.0002424E-17
   64.31650        9.9946761E-18
   64.47800        9.9895037E-18
   64.63950        9.9894930E-18
   64.80100        9.9929010E-18
   64.96250        9.9954164E-18
   65.12400        9.9937555E-18
   65.28550        9.9883589E-18
   65.44700        9.9831758E-18
   65.60850        9.9826762E-18
   65.77000        9.9883209E-18
   65.93150        9.9971303E-18
   66.09300        1.0003492E-17
   66.25450        1.0002976E-17
   66.41600        9.9954859E-18
   66.57750        9.9854812E-18
   66.73900        9.9790846E-18
   66.90050        9.9800913E-18
   67.06200        9.9876128E-18
   67.22350        9.9969484E-18
   67.38500        1.0002952E-17
   67.54650        1.0003468E-17
   67.70800        1.0000441E-17
   67.86950        9.9980386E-18
   68.03100        9.9992827E-18
   68.19250        1.0003716E-17
   68.35400        1.0007794E-17
   68.51550        1.0007688E-17
   68.67700        1.0002389E-17
   68.83850        9.9947878E-18
   69.00000        9.9898917E-18
   69.16150        9.9913814E-18
   69.32300        9.9989642E-18
   69.48450        1.0008398E-17
   69.64600        1.0014224E-17
   69.80750        1.0013304E-17
   69.96900        1.0006769E-17
   70.13050        9.9990684E-18
   70.29200        9.9948804E-18
   70.45350        9.9960682E-18
   70.61500        1.0000739E-17
   70.77650        1.0004947E-17
   70.93800        1.0005693E-17
   71.09950        1.0003019E-17
   71.26100        9.9997517E-18
   71.42250        9.9991677E-18
   71.58400        1.0002359E-17
   71.74550        1.0007256E-17
   71.90700        1.0010032E-17
   72.06850        1.0007883E-17
   72.23000        1.0001179E-17
   72.39150        9.9934287E-18
   72.55300        9.9890620E-18
   72.71450        9.9905369E-18
   72.87600        9.9967771E-18
   73.03750        1.0003969E-17
   73.19900        1.0008128E-17
   73.36050        1.0007645E-17
   73.52200        1.0004118E-17
   73.68350        1.0000978E-17
   73.84500        1.0001010E-17
   74.00650        1.0004499E-17
   74.16800        1.0009280E-17
   74.32950        1.0012519E-17
   74.49100        1.0012865E-17
   74.65250        1.0011390E-17
   74.81400        1.0010676E-17
   74.97550        1.0012746E-17
   75.13700        1.0017376E-17
   75.29850        1.0022053E-17
   75.46000        1.0023628E-17
   75.62150        1.0020535E-17
   75.78300        1.0014016E-17
   75.94450        1.0007464E-17
   76.10600        1.0004348E-17
   76.26750        1.0006064E-17
   76.42900        1.0011168E-17
   76.59050        1.0016437E-17
   76.75200        1.0018972E-17
   76.91350        1.0017927E-17
   77.07500        1.0014722E-17
   77.23650        1.0011742E-17
   77.39800        1.0010515E-17
   77.55950        1.0010701E-17
   77.72100        1.0010559E-17
   77.88250        1.0008489E-17
   78.04400        1.0004485E-17
   78.20550        1.0000383E-17
   78.36700        9.9986954E-18
   78.52850        1.0000816E-17
   78.69000        1.0005879E-17
   78.85150        1.0011088E-17
   79.01300        1.0013373E-17
   79.17450        1.0011284E-17
   79.33600        1.0005886E-17
   79.49750        1.0000072E-17
   79.65900        9.9967705E-18
   79.82050        9.9972362E-18
   79.98200        1.0000504E-17
   80.14350        1.0004300E-17
   80.30500        1.0006688E-17
   80.46650        1.0007313E-17
   80.62800        1.0007414E-17
   80.78950        1.0008682E-17
   80.95100        1.0011849E-17
   81.11250        1.0016035E-17
   81.27400        1.0019338E-17
   81.43550        1.0020243E-17
   81.59700        1.0018824E-17
   81.75850        1.0016845E-17
   81.92000        1.0016650E-17
   82.08150        1.0019559E-17
   82.24300        1.0024855E-17
   82.40450        1.0030088E-17
   82.56600        1.0032511E-17
   82.72750        1.0030737E-17
   82.88900        1.0025520E-17
   83.05050        1.0019219E-17
   83.21200        1.0014300E-17
   83.37350        1.0011913E-17
   83.53500        1.0011443E-17
   83.69650        1.0011256E-17
   83.85800        1.0010036E-17
   84.01950        1.0007737E-17
   84.18100        1.0005507E-17
   84.34250        1.0004683E-17
   84.50400        1.0005633E-17
   84.66550        1.0007332E-17
   84.82700        1.0008008E-17
   84.98850        1.0006433E-17
   85.15000        1.0002949E-17
   85.31150        9.9994539E-18
   85.47300        9.9983107E-18
   85.63450        1.0000853E-17
   85.79600        1.0006485E-17
   85.95750        1.0012973E-17
   86.11900        1.0017738E-17
   86.28050        1.0019329E-17
   86.44200        1.0018111E-17
   86.60350        1.0015808E-17
   86.76500        1.0014260E-17
   86.92650        1.0014268E-17
   87.08800        1.0015306E-17
   87.24950        1.0016189E-17
   87.41100        1.0016165E-17
   87.57250        1.0015585E-17
   87.73400        1.0015643E-17
   87.89550        1.0017395E-17
   88.05700        1.0020766E-17
   88.21850        1.0024328E-17
   88.38000        1.0026065E-17
   88.54150        1.0024673E-17
   88.70300        1.0020503E-17
   88.86450        1.0015510E-17
   89.02600        1.0012166E-17
   89.18750        1.0012034E-17
   89.34900        1.0014894E-17
   89.51050        1.0018961E-17
   89.67200        1.0022023E-17
   89.83350        1.0022736E-17
   89.99500        1.0021259E-17
   90.15650        1.0018880E-17
   90.31800        1.0016980E-17
   90.47950        1.0016089E-17
   90.64100        1.0015702E-17
   90.80250        1.0014906E-17
   90.96400        1.0013331E-17
   91.12550        1.0011667E-17
   91.28700        1.0011321E-17
   91.44850        1.0013418E-17
   91.61000        1.0017835E-17
   91.77150        1.0022982E-17
   91.93300        1.0026572E-17
   92.09450        1.0026929E-17
   92.25600        1.0024021E-17
   92.41750        1.0019548E-17
   92.57900        1.0015996E-17
   92.74050        1.0015259E-17
   92.90200        1.0017663E-17
   93.06350        1.0021974E-17
   93.22500        1.0026306E-17
   93.38650        1.0029297E-17
   93.54800        1.0030754E-17
   93.70950        1.0031417E-17
   93.87100        1.0032079E-17
   94.03250        1.0032782E-17
   94.19400        1.0032687E-17
   94.35550        1.0030759E-17
   94.51700        1.0026755E-17
   94.67850        1.0021777E-17
   94.84000        1.0017898E-17
   95.00150        1.0017022E-17
   95.16300        1.0019677E-17
   95.32450        1.0024561E-17
   95.48600        1.0029187E-17
   95.64750        1.0031264E-17
   95.80900        1.0029979E-17
   95.97050        1.0026365E-17
   96.13200        1.0022557E-17
   96.29350        1.0020437E-17
   96.45500        1.0020570E-17
   96.61650        1.0022095E-17
   96.77800        1.0023574E-17
   96.93950        1.0024149E-17
   97.10100        1.0024160E-17
   97.26250        1.0024784E-17
   97.42400        1.0026945E-17
   97.58550        1.0030341E-17
   97.74700        1.0033320E-17
   97.90850        1.0033812E-17
   98.07000        1.0030711E-17
   98.23150        1.0024792E-17
   98.39300        1.0018431E-17
   98.55450        1.0014289E-17
   98.71600        1.0013730E-17
   98.87750        1.0016042E-17
   99.03900        1.0018963E-17
   99.20050        1.0020186E-17
   99.36200        1.0018832E-17
   99.52350        1.0015911E-17
   99.68500        1.0013490E-17
   99.84650        1.0013161E-17
   100.0080        1.0014892E-17
   100.1695        1.0017088E-17
   100.3310        1.0017791E-17
   100.4925        1.0016191E-17
   100.6540        1.0013339E-17
   100.8155        1.0011504E-17
   100.9770        1.0012602E-17
   101.1385        1.0016778E-17
   101.3000        1.0022176E-17
   101.4615        1.0026110E-17
   101.6230        1.0026864E-17
   101.7845        1.0024892E-17
   101.9460        1.0022529E-17
   102.1075        1.0022394E-17
   102.2690        1.0025551E-17
   102.4305        1.0030715E-17
   102.5920        1.0035075E-17
   102.7535        1.0036205E-17
   102.9150        1.0033730E-17
   103.0765        1.0029612E-17
   103.2380        1.0026816E-17
   103.3995        1.0027299E-17
   103.5610        1.0030720E-17
   103.7225        1.0034785E-17
   103.8840        1.0036966E-17
   104.0455        1.0036369E-17
   104.2070        1.0034385E-17
   104.3685        1.0033614E-17
   104.5300        1.0035842E-17
   104.6915        1.0040504E-17
   104.8530        1.0044834E-17
   105.0145        1.0045665E-17
   105.1760        1.0041677E-17
   105.3375        1.0034484E-17
   105.4990        1.0027758E-17
   105.6605        1.0024884E-17
   105.8220        1.0026757E-17
   105.9835        1.0031241E-17
   106.1450        1.0034660E-17
   106.3065        1.0034301E-17
   106.4680        1.0030180E-17
   106.6295        1.0024844E-17
   106.7910        1.0021384E-17
   106.9525        1.0021105E-17
   107.1140        1.0022577E-17
   107.2755        1.0022772E-17
   107.4370        1.0019481E-17
   107.5985        1.0013231E-17
   107.7600        1.0007251E-17
   107.9215        1.0005372E-17
   108.0830        1.0009328E-17
   108.2445        1.0017346E-17
   108.4060        1.0025122E-17
   108.5675        1.0028578E-17
   108.7290        1.0026521E-17
   108.8905        1.0021366E-17
   109.0520        1.0017396E-17
   109.2135        1.0017782E-17
   109.3750        1.0022448E-17
   109.5365        1.0028281E-17
   109.6980        1.0031495E-17
   109.8595        1.0030440E-17
   110.0210        1.0026817E-17
   110.1825        1.0024388E-17
   110.3440        1.0026139E-17
   110.5055        1.0031936E-17
   110.6670        1.0038442E-17
   110.8285        1.0041408E-17
   110.9900        1.0038742E-17
   111.1515        1.0032145E-17
   111.3130        1.0026081E-17
   111.4745        1.0024756E-17
   111.6360        1.0029206E-17
   111.7975        1.0036555E-17
   111.9590        1.0041998E-17
   112.1205        1.0042108E-17
   112.2820        1.0037158E-17
   112.4435        1.0030821E-17
   112.6050        1.0027490E-17
   112.7665        1.0029151E-17
   112.9280        1.0034057E-17
   113.0895        1.0038118E-17
   113.2510        1.0037993E-17
   113.4125        1.0033611E-17
   113.5740        1.0028260E-17
   113.7355        1.0026183E-17
   113.8970        1.0029393E-17
   114.0585        1.0036043E-17
   114.2200        1.0041591E-17
   114.3815        1.0041949E-17
   114.5430        1.0036412E-17
   114.7045        1.0028251E-17
   114.8660        1.0022512E-17
   115.0275        1.0022571E-17
   115.1890        1.0027843E-17
   115.3505        1.0034274E-17
   115.5120        1.0037231E-17
   115.6735        1.0034722E-17
   115.8350        1.0028676E-17
   115.9965        1.0023418E-17
   116.1580        1.0022475E-17
   116.3195        1.0026051E-17
   116.4810        1.0030983E-17
   116.6425        1.0033179E-17
   116.8040        1.0030749E-17
   116.9655        1.0025507E-17
   117.1270        1.0021743E-17
   117.2885        1.0023103E-17
   117.4500        1.0029834E-17
   117.6115        1.0038387E-17
   117.7730        1.0043720E-17
   117.9345        1.0042696E-17
   118.0960        1.0036228E-17
   118.2575        1.0028637E-17
   118.4190        1.0024737E-17
   118.5805        1.0026650E-17
   118.7420        1.0032582E-17