  -27.90000       -1.0289821E-18
  -27.73850       -1.0443503E-18
  -27.57700       -1.0719618E-18
  -27.41550       -1.1066403E-18
  -27.25400       -1.1423488E-18
  -27.09250       -1.1735727E-18
  -26.93100       -1.1965713E-18
  -26.76950       -1.2101850E-18
  -26.60800       -1.2160129E-18
  -26.44650       -1.2179113E-18
  -26.28500       -1.2209444E-18
  -26.12350       -1.2300450E-18
  -25.96200       -1.2487212E-18
  -25.80050       -1.2781280E-18
  -25.63900       -1.3167288E-18
  -25.47750       -1.3606234E-18
  -25.31600       -1.4044655E-18
  -25.15450       -1.4427326E-18
  -24.99300       -1.4710506E-18
  -24.83150       -1.4872499E-18
  -24.67000       -1.4918984E-18
  -24.50850       -1.4881801E-18
  -24.34700       -1.4811471E-18
  -24.18550       -1.4765211E-18
  -24.02400       -1.4793322E-18
  -23.86250       -1.4927262E-18
  -23.70100       -1.5172306E-18
  -23.53950       -1.5506601E-18
  -23.37800       -1.5886829E-18
  -23.21650       -1.6259022E-18
  -23.05500       -1.6571874E-18
  -22.89350       -1.6789239E-18
  -22.73200       -1.6898849E-18
  -22.57050       -1.6915062E-18
  -22.40900       -1.6875169E-18
  -22.24750       -1.6830072E-18
  -22.08600       -1.6831724E-18
  -21.92450       -1.6920287E-18
  -21.76300       -1.7114220E-18
  -21.60150       -1.7405702E-18
  -21.44000       -1.7762469E-18
  -21.27850       -1.8135736E-18
  -21.11700       -1.8472200E-18
  -20.95550       -1.8727183E-18
  -20.79400       -1.8875629E-18
  -20.63250       -1.8918293E-18
  -20.47100       -1.8881535E-18
  -20.30950       -1.8810803E-18
  -20.14800       -1.8759520E-18
  -19.98650       -1.8775974E-18
  -19.82500       -1.8891554E-18
  -19.66350       -1.9113052E-18
  -19.50200       -1.9421001E-18
  -19.34050       -1.9774334E-18
  -19.17900       -2.0120347E-18
  -19.01750       -2.0407480E-18
  -18.85600       -2.0597891E-18
  -18.69450       -2.0676711E-18
  -18.53300       -2.0655734E-18
  -18.37150       -2.0570549E-18
  -18.21000       -2.0471893E-18
  -18.04850       -2.0413205E-18
  -17.88700       -2.0437555E-18
  -17.72550       -2.0567104E-18
  -17.56400       -2.0797690E-18
  -17.40250       -2.1099913E-18
  -17.24100       -2.1426366E-18
  -17.07950       -2.1723374E-18
  -16.91800       -2.1944281E-18
  -16.75650       -2.2061066E-18
  -16.59500       -2.2071451E-18
  -16.43350       -2.1999729E-18
  -16.27200       -2.1891000E-18
  -16.11050       -2.1800250E-18
  -15.94900       -2.1778803E-18
  -15.78750       -2.1861530E-18
  -15.62600       -2.2057931E-18
  -15.46450       -2.2349359E-18
  -15.30300       -2.2693177E-18
  -15.14150       -2.3032799E-18
  -14.98000       -2.3311315E-18
  -14.81850       -2.3485277E-18
  -14.65700       -2.3535323E-18
  -14.49550       -2.3471014E-18
  -14.33400       -2.3328654E-18
  -14.17250       -2.3162556E-18
  -14.01100       -2.3031864E-18
  -13.84950       -2.2986166E-18
  -13.68800       -2.3053350E-18
  -13.52650       -2.3232757E-18
  -13.36500       -2.3495327E-18
  -13.20350       -2.3790784E-18
  -13.04200       -2.4060078E-18
  -12.88050       -2.4250121E-18
  -12.71900       -2.4327132E-18
  -12.55750       -2.4285297E-18
  -12.39600       -2.4148581E-18
  -12.23450       -2.3965155E-18
  -12.07300       -2.3795819E-18
  -11.91150       -2.3699117E-18
  -11.75000       -2.3716892E-18
  -11.58850       -2.3863704E-18
  -11.42700       -2.4122909E-18
  -11.26550       -2.4450255E-18
  -11.10400       -2.4784329E-18
  -10.94250       -2.5061240E-18
  -10.78100       -2.5230092E-18
  -10.61950       -2.5265322E-18
  -10.45800       -2.5172988E-18
  -10.29650       -2.4989317E-18
  -10.13500       -2.4771946E-18
  -9.973500       -2.4585855E-18
  -9.812000       -2.4487497E-18
  -9.650500       -2.4511037E-18
  -9.489000       -2.4659968E-18
  -9.327500       -2.4906303E-18
  -9.166000       -2.5197470E-18
  -9.004500       -2.5469303E-18
  -8.843000       -2.5661903E-18
  -8.681500       -2.5734513E-18
  -8.520000       -2.5675645E-18
  -8.358500       -2.5506015E-18
  -8.197000       -2.5273494E-18
  -8.035500       -2.5041305E-18
  -7.874000       -2.4872384E-18
  -7.712500       -2.4813772E-18
  -7.551000       -2.4884858E-18
  -7.389500       -2.5072432E-18
  -7.228000       -2.5333759E-18
  -7.066500       -2.5606991E-18
  -6.905000       -2.5826343E-18
  -6.743500       -2.5938395E-18
  -6.582000       -2.5915484E-18
  -6.420500       -2.5762836E-18
  -6.259000       -2.5517668E-18
  -6.097500       -2.5240349E-18
  -5.936000       -2.4999799E-18
  -5.774500       -2.4856711E-18
  -5.613000       -2.4848752E-18
  -5.451500       -2.4981431E-18
  -5.290000       -2.5226968E-18
  -5.128500       -2.5531345E-18
  -4.967000       -2.5827827E-18
  -4.805500       -2.6053555E-18
  -4.644000       -2.6165108E-18
  -4.482500       -2.6149179E-18
  -4.321000       -2.6025685E-18
  -4.159500       -2.5842636E-18
  -3.998000       -2.5663802E-18
  -3.836500       -2.5552399E-18
  -3.675000       -2.5554659E-18
  -3.513500       -2.5687548E-18
  -3.352000       -2.5933760E-18
  -3.190500       -2.6245397E-18
  -3.029000       -2.6555486E-18
  -2.867500       -2.6794564E-18
  -2.706000       -2.6908036E-18
  -2.544500       -2.6870021E-18
  -2.383000       -2.6690087E-18
  -2.221500       -2.6411188E-18
  -2.060000       -2.6099333E-18
  -1.898500       -2.5827563E-18
  -1.737000       -2.5658255E-18
  -1.575500       -2.5628020E-18
  -1.414000       -2.5739034E-18
  -1.252500       -2.5958878E-18
  -1.091000       -2.6229000E-18
 -0.9295000       -2.6479757E-18
 -0.7680000       -2.6648289E-18
 -0.6065000       -2.6694773E-18
 -0.4450000       -2.6612859E-18
 -0.2835000       -2.6431572E-18
 -0.1220000       -2.6208097E-18
  3.9500002E-02   -2.6013246E-18
  0.2010000       -2.5913277E-18
  0.3625000       -2.5952759E-18
  0.5240000       -2.6142741E-18
  0.6855000       -2.6457357E-18
  0.8470000       -2.6839558E-18
   1.008500       -2.7214722E-18
   1.170000       -2.7508706E-18
   1.331500       -2.7665976E-18
   1.493000       -2.7663350E-18
   1.654500       -2.7515880E-18
   1.816000       -2.7273321E-18
   1.977500       -2.7007956E-18
   2.139000       -2.6796654E-18
   2.300500       -2.6701690E-18
   2.462000       -2.6755149E-18
   2.623500       -2.6950980E-18
   2.785000       -2.7246672E-18
   2.946500       -2.7574258E-18
   3.108000       -2.7857681E-18
   3.269500       -2.8032185E-18
   3.431000       -2.8060789E-18
   3.592500       -2.7943791E-18
   3.754000       -2.7718961E-18
   3.915500       -2.7452359E-18
   4.077000       -2.7222014E-18
   4.238500       -2.7098433E-18
   4.400000       -2.7126664E-18
   4.561500       -2.7314530E-18
   4.723000       -2.7630049E-18
   4.884500       -2.8008939E-18
   5.046000       -2.8370440E-18
   5.207500       -2.8637528E-18
   5.369000       -2.8756357E-18
   5.530500       -2.8709814E-18
   5.692000       -2.8521804E-18
   5.853500       -2.8251086E-18
   6.015000       -2.7976417E-18
   6.176500       -2.7776791E-18
   6.338000       -2.7711793E-18
   6.499500       -2.7806890E-18
   6.661000       -2.8047230E-18
   6.822500       -2.8381388E-18
   6.984000       -2.8734193E-18
   7.145500       -2.9025534E-18
   7.307000       -2.9190521E-18
   7.468500       -2.9196028E-18
   7.630000       -2.9049264E-18
   7.791500       -2.8796107E-18
   7.953000       -2.8509502E-18
   8.114500       -2.8270779E-18
   8.276000       -2.8148845E-18
   8.437500       -2.8182699E-18
   8.599000       -2.8371749E-18
   8.760500       -2.8676400E-18
   8.922000       -2.9028533E-18
   9.083500       -2.9349069E-18
   9.245000       -2.9568082E-18
   9.406500       -2.9642410E-18
   9.568000       -2.9566518E-18
   9.729500       -2.9373889E-18
   9.891000       -2.9128619E-18
   10.05250       -2.8909276E-18
   10.21400       -2.8788923E-18
   10.37550       -2.8816406E-18
   10.53700       -2.9003711E-18
   10.69850       -2.9322800E-18
   10.86000       -2.9712776E-18
   11.02150       -3.0095529E-18
   11.18300       -3.0395659E-18
   11.34450       -3.0559400E-18
   11.50600       -3.0567690E-18
   11.66750       -3.0440118E-18
   11.82900       -3.0229061E-18
   11.99050       -3.0005753E-18
   12.15200       -2.9841883E-18
   12.31350       -2.9791445E-18
   12.47500       -2.9877207E-18
   12.63650       -3.0085142E-18
   12.79800       -3.0368269E-18
   12.95950       -3.0659011E-18
   13.12100       -3.0886939E-18
   13.28250       -3.0997450E-18
   13.44400       -3.0966313E-18
   13.60550       -3.0806206E-18
   13.76700       -3.0563468E-18
   13.92850       -3.0306053E-18
   14.09000       -3.0105937E-18
   14.25150       -3.0020866E-18
   14.41300       -3.0080076E-18
   14.57450       -3.0277503E-18
   14.73600       -3.0573888E-18
   14.89750       -3.0906950E-18
   15.05900       -3.1206966E-18
   15.22050       -3.1413931E-18
   15.38200       -3.1492234E-18
   15.54350       -3.1439255E-18
   15.70500       -3.1285731E-18
   15.86650       -3.1087594E-18
   16.02800       -3.0911282E-18
   16.18950       -3.0816264E-18
   16.35100       -3.0839421E-18
   16.51250       -3.0985615E-18
   16.67400       -3.1226862E-18
   16.83550       -3.1510263E-18
   16.99700       -3.1772224E-18
   17.15850       -3.1955064E-18
   17.32000       -3.2021549E-18
   17.48150       -3.1963901E-18
   17.64300       -3.1805316E-18
   17.80450       -3.1593895E-18
   17.96600       -3.1390735E-18
   18.12750       -3.1254935E-18
   18.28900       -3.1229106E-18
   18.45050       -3.1328854E-18
   18.61200       -3.1538869E-18
   18.77350       -3.1816859E-18
   18.93500       -3.2104435E-18
   19.09650       -3.2342168E-18
   19.25800       -3.2484807E-18
   19.41950       -3.2512508E-18
   19.58100       -3.2435133E-18
   19.74250       -3.2288753E-18
   19.90400       -3.2125610E-18
   20.06550       -3.2000497E-18
   20.22700       -3.1957159E-18
   20.38850       -3.2017953E-18
   20.55000       -3.2178991E-18
   20.71150       -3.2411656E-18
   20.87300       -3.2669947E-18
   21.03450       -3.2901946E-18
   21.19600       -3.3062763E-18
   21.35750       -3.3125753E-18
   21.51900       -3.3089193E-18
   21.68050       -3.2976496E-18
   21.84200       -3.2829887E-18
   22.00350       -3.2699248E-18
   22.16500       -3.2629252E-18
   22.32650       -3.2648362E-18
   22.48800       -3.2762475E-18
   22.64950       -3.2954541E-18
   22.81100       -3.3189729E-18
   22.97250       -3.3424421E-18
   23.13400       -3.3616624E-18
   23.29550       -3.3735492E-18
   23.45700       -3.3767984E-18
   23.61850       -3.3721339E-18
   23.78000       -3.3620849E-18
   23.94150       -3.3503356E-18
   24.10300       -3.3407881E-18
   24.26450       -3.3365697E-18
   24.42600       -3.3392551E-18
   24.58750       -3.3485138E-18
   24.74900       -3.3622820E-18
   24.91050       -3.3773900E-18
   25.07200       -3.3904365E-18
   25.23350       -3.3986589E-18
   25.39500       -3.4005699E-18
   25.55650       -3.3962369E-18
   25.71800       -3.3871905E-18
   25.87950       -3.3760320E-18
   26.04100       -3.3658475E-18
   26.20250       -3.3595409E-18
   26.36400       -3.3592057E-18
   26.52550       -3.3656592E-18
   26.68700       -3.3782476E-18
   26.84850       -3.3949972E-18
   27.01000       -3.4130955E-18
   27.17150       -3.4295837E-18
   27.33300       -3.4420795E-18
   27.49450       -3.4493132E-18
   27.65600       -3.4513443E-18
   27.81750       -3.4494337E-18
   27.97900       -3.4456374E-18
   28.14050       -3.4422722E-18
   28.30200       -3.4413859E-18
   28.46350       -3.4443329E-18
   28.62500       -3.4515087E-18
   28.78650       -3.4622726E-18
   28.94800       -3.4750755E-18
   29.10950       -3.4877913E-18
   29.27100       -3.4982084E-18
   29.43250       -3.5045810E-18
   29.59400       -3.5060981E-18
   29.75550       -3.5031248E-18
   29.91700       -3.4971335E-18
   30.07850       -3.4903457E-18
   30.24000       -3.4851894E-18
   30.40150       -3.4837319E-18
   30.56300       -3.4872309E-18
   30.72450       -3.4958882E-18
   30.88600       -3.5088336E-18
   31.04750       -3.5243114E-18
   31.20900       -3.5400323E-18
   31.37050       -3.5536440E-18
   31.53200       -3.5632356E-18
   31.69350       -3.5677892E-18
   31.85500       -3.5674513E-18
   32.01650       -3.5635338E-18
   32.17800       -3.5582096E-18
   32.33950       -3.5539774E-18
   32.50100       -3.5530294E-18
   32.66250       -3.5567149E-18
   32.82400       -3.5652208E-18
   32.98550       -3.5775533E-18
   33.14700       -3.5917808E-18
   33.30850       -3.6054723E-18
   33.47000       -3.6162302E-18
   33.63150       -3.6222177E-18
   33.79300       -3.6225961E-18
   33.95450       -3.6177770E-18
   34.11600       -3.6094113E-18
   34.27750       -3.6000757E-18
   34.43900       -3.5926964E-18
   34.60050       -3.5898241E-18
   34.76200       -3.5929665E-18
   34.92350       -3.6021627E-18
   35.08500       -3.6159377E-18
   35.24650       -3.6316554E-18
   35.40800       -3.6461695E-18
   35.56950       -3.6566024E-18
   35.73100       -3.6610472E-18
   35.89250       -3.6590434E-18
   36.05400       -3.6517187E-18
   36.21550       -3.6415700E-18
   36.37700       -3.6319168E-18
   36.53850       -3.6261307E-18
   36.70000       -3.6268028E-18
   36.86150       -3.6350452E-18
   37.02300       -3.6501243E-18
   37.18450       -3.6695523E-18
   37.34600       -3.6896441E-18
   37.50750       -3.7064164E-18
   37.66900       -3.7165961E-18
   37.83050       -3.7184680E-18
   37.99200       -3.7123299E-18
   38.15350       -3.7004442E-18
   38.31500       -3.6864929E-18
   38.47650       -3.6746779E-18
   38.63800       -3.6686817E-18
   38.79950       -3.6707426E-18
   38.96100       -3.6810695E-18
   39.12250       -3.6977467E-18
   39.28400       -3.7171822E-18
   39.44550       -3.7349955E-18
   39.60700       -3.7471460E-18
   39.76850       -3.7510077E-18
   39.93000       -3.7461095E-18
   40.09150       -3.7343255E-18
   40.25300       -3.7194652E-18
   40.41450       -3.7063490E-18
   40.57600       -3.6996087E-18
   40.73750       -3.7025150E-18
   40.89900       -3.7161242E-18
   41.06050       -3.7389656E-18
   41.22200       -3.7673577E-18
   41.38350       -3.7962867E-18
   41.54500       -3.8206397E-18
   41.70650       -3.8364831E-18
   41.86800       -3.8420583E-18
   42.02950       -3.8382194E-18
   42.19100       -3.8281977E-18
   42.35250       -3.8167367E-18
   42.51400       -3.8088321E-18
   42.67550       -3.8084036E-18
   42.83700       -3.8172458E-18
   42.99850       -3.8345273E-18
   43.16000       -3.8569633E-18
   43.32150       -3.8796177E-18
   43.48300       -3.8971465E-18
   43.64450       -3.9051664E-18
   43.80600       -3.9014238E-18
   43.96750       -3.8864341E-18
   44.12900       -3.8634314E-18
   44.29050       -3.8376011E-18
   44.45200       -3.8147895E-18
   44.61350       -3.8000284E-18
   44.77500       -3.7962664E-18
   44.93650       -3.8036511E-18
   45.09800       -3.8195408E-18
   45.25950       -3.8392343E-18
   45.42100       -3.8572119E-18
   45.58250       -3.8685628E-18
   45.74400       -3.8702544E-18
   45.90550       -3.8619189E-18
   46.06700       -3.8459845E-18
   46.22850       -3.8270868E-18
   46.39000       -3.8108959E-18
   46.55150       -3.8026394E-18
   46.71300       -3.8056921E-18
   46.87450       -3.8206294E-18
   47.03600       -3.8450233E-18
   47.19750       -3.8740561E-18
   47.35900       -3.9017882E-18
   47.52050       -3.9227250E-18
   47.68200       -3.9332442E-18
   47.84350       -3.9325010E-18
   48.00500       -3.9225951E-18
   48.16650       -3.9079900E-18
   48.32800       -3.8943581E-18
   48.48950       -3.8871397E-18
   48.65100       -3.8901626E-18
   48.81250       -3.9046403E-18
   48.97400       -3.9288105E-18
   49.13550       -3.9583194E-18
   49.29700       -3.9873025E-18
   49.45850       -4.0099032E-18
   49.62000       -4.0218237E-18
   49.78150       -4.0214726E-18
   49.94300       -4.0103648E-18
   50.10450       -3.9926606E-18
   50.26600       -3.9739986E-18
   50.42750       -3.9599692E-18
   50.58900       -3.9546678E-18
   50.75050       -3.9596975E-18
   50.91200       -3.9738377E-18
   51.07350       -3.9934142E-18
   51.23500       -4.0132512E-18
   51.39650       -4.0279816E-18
   51.55800       -4.0334208E-18
   51.71950       -4.0276905E-18
   51.88100       -4.0117921E-18
   52.04250       -3.9894449E-18
   52.20400       -3.9661805E-18
   52.36550       -3.9479093E-18
   52.52700       -3.9393521E-18
   52.68850       -3.9428023E-18
   52.85000       -3.9575675E-18
   53.01150       -3.9802405E-18
   53.17300       -4.0056713E-18
   53.33450       -4.0283270E-18
   53.49600       -4.0436675E-18
   53.65750       -4.0492025E-18
   53.81900       -4.0450245E-18
   53.98050       -4.0337301E-18
   54.14200       -4.0197710E-18
   54.30350       -4.0083452E-18
   54.46500       -4.0040716E-18
   54.62650       -4.0097460E-18
   54.78800       -4.0255295E-18
   54.94950       -4.0488274E-18
   55.11100       -4.0749465E-18
   55.27250       -4.0983606E-18
   55.43400       -4.1142065E-18
   55.59550       -4.1195683E-18
   55.75700       -4.1141714E-18
   55.91850       -4.1003422E-18
   56.08000       -4.0823067E-18
   56.24150       -4.0650799E-18
   56.40300       -4.0532491E-18
   56.56450       -4.0499230E-18
   56.72600       -4.0560429E-18
   56.88750       -4.0701852E-18
   57.04900       -4.0889039E-18
   57.21050       -4.1075725E-18
   57.37200       -4.1215746E-18
   57.53350       -4.1275407E-18
   57.69500       -4.1242957E-18
   57.85650       -4.1132003E-18
   58.01800       -4.0977671E-18
   58.17950       -4.0826686E-18
   58.34100       -4.0724500E-18
   58.50250       -4.0703424E-18
   58.66400       -4.0775054E-18
   58.82550       -4.0928491E-18
   58.98700       -4.1134087E-18
   59.14850       -4.1351098E-18
   59.31000       -4.1537313E-18
   59.47150       -4.1658648E-18
   59.63300       -4.1696971E-18
   59.79450       -4.1654462E-18
   59.95600       -4.1553348E-18
   60.11750       -4.1430466E-18
   60.27900       -4.1327656E-18
   60.44050       -4.1280477E-18
   60.60200       -4.1308515E-18
   60.76350       -4.1410349E-18
   60.92500       -4.1564651E-18
   61.08650       -4.1736775E-18
   61.24800       -4.1888521E-18
   61.40950       -4.1987977E-18
   61.57100       -4.2016987E-18
   61.73250       -4.1974726E-18
   61.89400       -4.1877251E-18
   62.05550       -4.1753505E-18
   62.21700       -4.1638700E-18
   62.37850       -4.1566186E-18
   62.54000       -4.1559394E-18
   62.70150       -4.1625718E-18
   62.86300       -4.1754233E-18
   63.02450       -4.1918370E-18
   63.18600       -4.2083111E-18
   63.34750       -4.2214753E-18
   63.50900       -4.2290093E-18
   63.67050       -4.2302306E-18
   63.83200       -4.2261824E-18
   63.99350       -4.2192481E-18
   64.15500       -4.2124499E-18
   64.31650       -4.2086590E-18
   64.47800       -4.2099088E-18
   64.63950       -4.2169407E-18
   64.80100       -4.2290391E-18
   64.96250       -4.2441703E-18
   65.12400       -4.2594214E-18
   65.28550       -4.2716748E-18
   65.44700       -4.2783915E-18
   65.60850       -4.2783076E-18
   65.77000       -4.2718167E-18
   65.93150       -4.2609008E-18
   66.09300       -4.2485915E-18
   66.25450       -4.2381269E-18
   66.41600       -4.2320665E-18
   66.57750       -4.2316500E-18
   66.73900       -4.2365552E-18
   66.90050       -4.2451050E-18
   67.06200       -4.2547979E-18
   67.22350       -4.2630010E-18
   67.38500       -4.2676237E-18
   67.54650       -4.2676316E-18
   67.70800       -4.2633129E-18
   67.86950       -4.2562425E-18
   68.03100       -4.2489249E-18
   68.19250       -4.2441769E-18
   68.35400       -4.2443770E-18
   68.51550       -4.2507724E-18
   68.67700       -4.2630746E-18
   68.83850       -4.2794760E-18
   69.00000       -4.2971160E-18
   69.16150       -4.3128552E-18
   69.32300       -4.3241206E-18
   69.48450       -4.3295605E-18
   69.64600       -4.3293355E-18
   69.80750       -4.3249837E-18
   69.96900       -4.3189432E-18
   70.13050       -4.3138801E-18
   70.29200       -4.3120015E-18
   70.45350       -4.3145116E-18
   70.61500       -4.3213214E-18
   70.77650       -4.3310834E-18
   70.93800       -4.3415422E-18
   71.09950       -4.3501441E-18
   71.26100       -4.3547523E-18
   71.42250       -4.3542874E-18
   71.58400       -4.3490816E-18
   71.74550       -4.3408412E-18
   71.90700       -4.3321934E-18
   72.06850       -4.3259565E-18
   72.23000       -4.3243518E-18
   72.39150       -4.3283930E-18
   72.55300       -4.3376293E-18
   72.71450       -4.3502884E-18
   72.87600       -4.3637719E-18
   73.03750       -4.3753375E-18
   73.19900       -4.3828061E-18
   73.36050       -4.3851049E-18
   73.52200       -4.3825410E-18
   73.68350       -4.3767222E-18
   73.84500       -4.3701428E-18
   74.00650       -4.3655197E-18
   74.16800       -4.3650408E-18
   74.32950       -4.3697247E-18
   74.49100       -4.3791057E-18
   74.65250       -4.3913377E-18
   74.81400       -4.4037251E-18
   74.97550       -4.4135152E-18
   75.13700       -4.4187107E-18
   75.29850       -4.4186623E-18
   75.46000       -4.4142493E-18
   75.62150       -4.4076265E-18
   75.78300       -4.4016100E-18
   75.94450       -4.3989056E-18
   76.10600       -4.4013743E-18
   76.26750       -4.4095290E-18
   76.42900       -4.4223727E-18
   76.59050       -4.4376230E-18
   76.75200       -4.4522786E-18
   76.91350       -4.4633979E-18
   77.07500       -4.4688999E-18
   77.23650       -4.4681683E-18
   77.39800       -4.4622639E-18
   77.55950       -4.4536488E-18
   77.72100       -4.4454837E-18
   77.88250       -4.4406939E-18
   78.04400       -4.4410930E-18
   78.20550       -4.4468432E-18
   78.36700       -4.4564107E-18
   78.52850       -4.4670309E-18
   78.69000       -4.4755141E-18
   78.85150       -4.4791570E-18
   79.01300       -4.4764992E-18
   79.17450       -4.4677332E-18
   79.33600       -4.4546815E-18
   79.49750       -4.4403494E-18
   79.65900       -4.4281642E-18
   79.82050       -4.4210790E-18
   79.98200       -4.4207588E-18
   80.14350       -4.4270777E-18
   80.30500       -4.4380912E-18
   80.46650       -4.4505324E-18
   80.62800       -4.4607282E-18
   80.78950       -4.4656706E-18
   80.95100       -4.4639323E-18
   81.11250       -4.4561274E-18
   81.27400       -4.4447682E-18
   81.43550       -4.4335640E-18
   81.59700       -4.4263733E-18
   81.75850       -4.4261214E-18
   81.92000       -4.4339879E-18
   82.08150       -4.4490782E-18
   82.24300       -4.4686468E-18
   82.40450       -4.4888118E-18
   82.56600       -4.5055759E-18
   82.72750       -4.5158987E-18
   82.88900       -4.5185440E-18
   83.05050       -4.5144681E-18
   83.21200       -4.5066152E-18
   83.37350       -4.4991408E-18
   83.53500       -4.4962527E-18
   83.69650       -4.5009900E-18
   83.85800       -4.5143030E-18
   84.01950       -4.5347166E-18
   84.18100       -4.5586875E-18
   84.34250       -4.5815636E-18
   84.50400       -4.5988661E-18
   84.66550       -4.6075275E-18
   84.82700       -4.6067430E-18
   84.98850       -4.5982052E-18
   85.15000       -4.5856647E-18
   85.31150       -4.5739275E-18
   85.47300       -4.5675536E-18
   85.63450       -4.5695972E-18
   85.79600       -4.5807190E-18
   85.95750       -4.5989422E-18
   86.11900       -4.6201280E-18
   86.28050       -4.6390799E-18
   86.44200       -4.6509768E-18
   86.60350       -4.6527396E-18
   86.76500       -4.6439351E-18
   86.92650       -4.6269406E-18
   87.08800       -4.6063277E-18
   87.24950       -4.5876218E-18
   87.41100       -4.5757882E-18
   87.57250       -4.5738716E-18
   87.73400       -4.5821447E-18
   87.89550       -4.5980071E-18
   88.05700       -4.6166600E-18
   88.21850       -4.6323860E-18
   88.38000       -4.6401069E-18
   88.54150       -4.6368006E-18
   88.70300       -4.6223978E-18
   88.86450       -4.5998885E-18
   89.02600       -4.5745847E-18
   89.18750       -4.5527190E-18
   89.34900       -4.5397587E-18
   89.51050       -4.5389001E-18
   89.67200       -4.5501783E-18
   89.83350       -4.5704508E-18
   89.99500       -4.5942583E-18
   90.15650       -4.6153278E-18
   90.31800       -4.6282951E-18
   90.47950       -4.6301712E-18
   90.64100       -4.6211615E-18
   90.80250       -4.6046088E-18
   90.96400       -4.5860891E-18
   91.12550       -4.5718893E-18
   91.28700       -4.5672806E-18
   91.44850       -4.5750413E-18
   91.61000       -4.5946347E-18
   91.77150       -4.6222774E-18
   91.93300       -4.6518930E-18
   92.09450       -4.6767129E-18
   92.25600       -4.6910922E-18
   92.41750       -4.6920410E-18
   92.57900       -4.6800522E-18
   92.74050       -4.6589835E-18
   92.90200       -4.6350209E-18
   93.06350       -4.6150048E-18
   93.22500       -4.6045853E-18
   93.38650       -4.6067053E-18
   93.54800       -4.6208327E-18
   93.70950       -4.6431459E-18
   93.87100       -4.6676172E-18
   94.03250       -4.6876917E-18
   94.19400       -4.6981030E-18
   94.35550       -4.6963365E-18
   94.51700       -4.6833362E-18
   94.67850       -4.6632729E-18
   94.84000       -4.6424346E-18
   95.00150       -4.6275308E-18
   95.16300       -4.6238697E-18
   95.32450       -4.6338947E-18
   95.48600       -4.6564809E-18
   95.64750       -4.6871900E-18
   95.80900       -4.7194215E-18
   95.97050       -4.7461692E-18
   96.13200       -4.7618972E-18
   96.29350       -4.7640330E-18
   96.45500       -4.7536585E-18
   96.61650       -4.7352033E-18
   96.77800       -4.7152219E-18
   96.93950       -4.7005870E-18
   97.10100       -4.6966025E-18
   97.26250       -4.7055460E-18
   97.42400       -4.7260497E-18
   97.58550       -4.7534749E-18
   97.74700       -4.7811763E-18
   97.90850       -4.8023100E-18
   98.07000       -4.8116968E-18
   98.23150       -4.8072375E-18
   98.39300       -4.7904966E-18
   98.55450       -4.7663028E-18
   98.71600       -4.7414559E-18
   98.87750       -4.7228923E-18
   99.03900       -4.7158005E-18
   99.20050       -4.7221975E-18
   99.36200       -4.7403703E-18
   99.52350       -4.7653271E-18
   99.68500       -4.7901587E-18
   99.84650       -4.8079269E-18
   100.0080       -4.8135658E-18
   100.1695       -4.8052775E-18
   100.3310       -4.7850339E-18
   100.4925       -4.7580537E-18
   100.6540       -4.7314040E-18
   100.8155       -4.7120989E-18
   100.9770       -4.7052200E-18
   101.1385       -4.7125625E-18
   101.3000       -4.7321704E-18
   101.4615       -4.7588859E-18
   101.6230       -4.7857585E-18
   101.7845       -4.8059338E-18
   101.9460       -4.8145109E-18
   102.1075       -4.8098588E-18
   102.2690       -4.7940423E-18
   102.4305       -4.7722374E-18
   102.5920       -4.7513039E-18
   102.7535       -4.7378986E-18
   102.9150       -4.7366529E-18
   103.0765       -4.7489080E-18
   103.2380       -4.7723486E-18
   103.3995       -4.8016304E-18
   103.5610       -4.8298282E-18
   103.7225       -4.8503009E-18
   103.8840       -4.8584784E-18
   104.0455       -4.8530715E-18
   104.2070       -4.8363977E-18
   104.3685       -4.8137284E-18
   104.5300       -4.7918469E-18
   104.6915       -4.7772054E-18
   104.8530       -4.7741842E-18
   105.0145       -4.7839209E-18
   105.1760       -4.8040272E-18
   105.3375       -4.8292723E-18
   105.4990       -4.8530310E-18
   105.6605       -4.8691168E-18
   105.8220       -4.8734690E-18
   105.9835       -4.8652505E-18
   106.1450       -4.8470393E-18
   106.3065       -4.8240842E-18
   106.4680       -4.8028327E-18
   106.6295       -4.7891570E-18
   106.7910       -4.7867610E-18
   106.9525       -4.7962091E-18
   107.1140       -4.8148169E-18
   107.2755       -4.8374304E-18
   107.4370       -4.8578593E-18
   107.5985       -4.8705875E-18
   107.7600       -4.8722948E-18
   107.9215       -4.8627818E-18
   108.0830       -4.8450450E-18
   108.2445       -4.8244693E-18
   108.4060       -4.8073462E-18
   108.5675       -4.7991282E-18
   108.7290       -4.8029006E-18
   108.8905       -4.8185165E-18
   109.0520       -4.8426416E-18
   109.2135       -4.8696999E-18
   109.3750       -4.8934367E-18
   109.5365       -4.9086473E-18
   109.6980       -4.9125826E-18
   109.8595       -4.9056492E-18
   110.0210       -4.8912339E-18
   110.1825       -4.8747259E-18
   110.3440       -4.8620142E-18
   110.5055       -4.8578680E-18
   110.6670       -4.8646161E-18
   110.8285       -4.8814827E-18
   110.9900       -4.9047621E-18
   111.1515       -4.9288020E-18
   111.3130       -4.9475563E-18
   111.4745       -4.9562801E-18
   111.6360       -4.9528957E-18
   111.7975       -4.9386124E-18
   111.9590       -4.9176119E-18
   112.1205       -4.8958815E-18
   112.2820       -4.8795351E-18
   112.4435       -4.8731236E-18
   112.6050       -4.8784102E-18
   112.7665       -4.8939421E-18
   112.9280       -4.9155146E-18
   113.0895       -4.9373604E-18
   113.2510       -4.9537374E-18
   113.4125       -4.9604822E-18
   113.5740       -4.9561341E-18
   113.7355       -4.9423392E-18
   113.8970       -4.9234096E-18
   114.0585       -4.9051455E-18
   114.2200       -4.8932204E-18
   114.3815       -4.8915665E-18
   114.5430       -4.9012325E-18
   114.7045       -4.9200591E-18
   114.8660       -4.9432814E-18
   115.0275       -4.9648902E-18
   115.1890       -4.9793382E-18
   115.3505       -4.9830961E-18
   115.5120       -4.9756171E-18
   115.6735       -4.9594519E-18
   115.8350       -4.9395198E-18
   115.9965       -4.9217581E-18
   116.1580       -4.9115189E-18
   116.3195       -4.9121265E-18
   116.4810       -4.9239742E-18
   116.6425       -4.9443906E-18
   116.8040       -4.9683383E-18
   116.9655       -4.9897776E-18
   117.1270       -5.0033467E-18
   117.2885       -5.0058808E-18
   117.4500       -4.9973277E-18
   117.6115       -4.9807618E-18
   117.7730       -4.9614876E-18
   117.9345       -4.9454974E-18
   118.0960       -4.9377455E-18
   118.2575       -4.9407506E-18
   118.4190       -4.9539123E-18
   118.5805       -4.9737109E-18
   118.7420       -4.9946911E-18