  -27.90000        9.2927968E-18
  -27.73850        9.3224670E-18
  -27.57700        9.3721201E-18
  -27.41550        9.4267132E-18
  -27.25400        9.4714910E-18
  -27.09250        9.4974479E-18
  -26.93100        9.5044707E-18
  -26.76950        9.5009676E-18
  -26.60800        9.5001635E-18
  -26.44650        9.5145375E-18
  -26.28500        9.5506108E-18
  -26.12350        9.6061469E-18
  -25.96200        9.6708572E-18
  -25.80050        9.7303390E-18
  -25.63900        9.7716748E-18
  -25.47750        9.7884972E-18
  -25.31600        9.7835085E-18
  -25.15450        9.7674653E-18
  -24.99300        9.7550295E-18
  -24.83150        9.7591133E-18
  -24.67000        9.7859172E-18
  -24.50850        9.8326207E-18
  -24.34700        9.8885861E-18
  -24.18550        9.9395999E-18
  -24.02400        9.9734639E-18
  -23.86250        9.9847350E-18
  -23.70100        9.9767734E-18
  -23.53950        9.9603241E-18
  -23.37800        9.9492209E-18
  -23.21650        9.9549268E-18
  -23.05500        9.9820657E-18
  -22.89350        1.0026695E-17
  -22.73200        1.0077948E-17
  -22.57050        1.0122378E-17
  -22.40900        1.0149252E-17
  -22.24750        1.0154718E-17
  -22.08600        1.0143215E-17
  -21.92450        1.0125616E-17
  -21.76300        1.0114875E-17
  -21.60150        1.0120909E-17
  -21.44000        1.0146747E-17
  -21.27850        1.0187419E-17
  -21.11700        1.0231999E-17
  -20.95550        1.0267949E-17
  -20.79400        1.0286036E-17
  -20.63250        1.0283915E-17
  -20.47100        1.0266978E-17
  -20.30950        1.0246204E-17
  -20.14800        1.0233875E-17
  -19.98650        1.0238859E-17
  -19.82500        1.0263301E-17
  -19.66350        1.0301970E-17
  -19.50200        1.0344463E-17
  -19.34050        1.0379352E-17
  -19.17900        1.0398612E-17
  -19.01750        1.0400612E-17
  -18.85600        1.0390532E-17
  -18.69450        1.0378092E-17
  -18.53300        1.0373548E-17
  -18.37150        1.0383582E-17
  -18.21000        1.0408682E-17
  -18.04850        1.0443039E-17
  -17.88700        1.0476945E-17
  -17.72550        1.0500698E-17
  -17.56400        1.0508462E-17
  -17.40250        1.0500548E-17
  -17.24100        1.0483260E-17
  -17.07950        1.0466423E-17
  -16.91800        1.0459591E-17
  -16.75650        1.0468468E-17
  -16.59500        1.0492902E-17
  -16.43350        1.0527197E-17
  -16.27200        1.0562518E-17
  -16.11050        1.0590400E-17
  -15.94900        1.0605928E-17
  -15.78750        1.0609376E-17
  -15.62600        1.0605721E-17
  -15.46450        1.0602347E-17
  -15.30300        1.0605877E-17
  -15.14150        1.0619479E-17
  -14.98000        1.0641650E-17
  -14.81850        1.0666936E-17
  -14.65700        1.0688202E-17
  -14.49550        1.0699539E-17
  -14.33400        1.0698608E-17
  -14.17250        1.0687547E-17
  -14.01100        1.0672127E-17
  -13.84950        1.0659573E-17
  -13.68800        1.0655918E-17
  -13.52650        1.0663964E-17
  -13.36500        1.0682557E-17
  -13.20350        1.0707414E-17
  -13.04200        1.0733037E-17
  -12.88050        1.0754927E-17
  -12.71900        1.0771195E-17
  -12.55750        1.0782968E-17
  -12.39600        1.0793537E-17
  -12.23450        1.0806652E-17
  -12.07300        1.0824757E-17
  -11.91150        1.0847847E-17
  -11.75000        1.0873414E-17
  -11.58850        1.0897414E-17
  -11.42700        1.0915800E-17
  -11.26550        1.0925970E-17
  -11.10400        1.0927556E-17
  -10.94250        1.0922291E-17
  -10.78100        1.0913103E-17
  -10.61950        1.0902891E-17
  -10.45800        1.0893497E-17
  -10.29650        1.0885305E-17
  -10.13500        1.0877515E-17
  -9.973500        1.0868925E-17
  -9.812000        1.0858763E-17
  -9.650500        1.0847211E-17
  -9.489000        1.0835410E-17
  -9.327500        1.0824988E-17
  -9.166000        1.0817411E-17
  -9.004500        1.0813492E-17
  -8.843000        1.0813273E-17
  -8.681500        1.0816332E-17
  -8.520000        1.0822305E-17
  -8.358500        1.0831310E-17
  -8.197000        1.0844018E-17
  -8.035500        1.0861294E-17
  -7.874000        1.0883570E-17
  -7.712500        1.0910255E-17
  -7.551000        1.0939542E-17
  -7.389500        1.0968774E-17
  -7.228000        1.0995273E-17
  -7.066500        1.1017315E-17
  -6.905000        1.1034794E-17
  -6.743500        1.1049224E-17
  -6.582000        1.1063024E-17
  -6.420500        1.1078317E-17
  -6.259000        1.1095787E-17
  -6.097500        1.1114094E-17
  -5.936000        1.1130238E-17
  -5.774500        1.1140772E-17
  -5.613000        1.1143426E-17
  -5.451500        1.1138441E-17
  -5.290000        1.1128980E-17
  -5.128500        1.1120307E-17
  -4.967000        1.1117971E-17
  -4.805500        1.1125657E-17
  -4.644000        1.1143584E-17
  -4.482500        1.1168184E-17
  -4.321000        1.1193271E-17
  -4.159500        1.1212347E-17
  -3.998000        1.1221140E-17
  -3.836500        1.1219342E-17
  -3.675000        1.1210795E-17
  -3.513500        1.1201957E-17
  -3.352000        1.1199223E-17
  -3.190500        1.1206157E-17
  -3.029000        1.1221816E-17
  -2.867500        1.1240911E-17
  -2.706000        1.1255847E-17
  -2.544500        1.1259883E-17
  -2.383000        1.1250150E-17
  -2.221500        1.1229261E-17
  -2.060000        1.1204750E-17
  -1.898500        1.1186451E-17
  -1.737000        1.1182775E-17
  -1.575500        1.1197331E-17
  -1.414000        1.1227294E-17
  -1.252500        1.1264248E-17
  -1.091000        1.1297279E-17
 -0.9295000        1.1317153E-17
 -0.7680000        1.1319942E-17
 -0.6065000        1.1308624E-17
 -0.4450000        1.1291939E-17
 -0.2835000        1.1280894E-17
 -0.1220000        1.1284247E-17
  3.9500002E-02    1.1304804E-17
  0.2010000        1.1338033E-17
  0.3625000        1.1373684E-17
  0.5240000        1.1399809E-17
  0.6855000        1.1407674E-17
  0.8470000        1.1395535E-17
   1.008500        1.1369728E-17
   1.170000        1.1342526E-17
   1.331500        1.1327490E-17
   1.493000        1.1334142E-17
   1.654500        1.1364064E-17
   1.816000        1.1410047E-17
   1.977500        1.1458719E-17
   2.139000        1.1495704E-17
   2.300500        1.1511284E-17
   2.462000        1.1504317E-17
   2.623500        1.1482786E-17
   2.785000        1.1460672E-17
   2.946500        1.1452347E-17
   3.108000        1.1466683E-17
   3.269500        1.1503257E-17
   3.431000        1.1552237E-17
   3.592500        1.1598060E-17
   3.754000        1.1625525E-17
   3.915500        1.1625875E-17
   4.077000        1.1600421E-17
   4.238500        1.1560214E-17
   4.400000        1.1521790E-17
   4.561500        1.1500678E-17
   4.723000        1.1505201E-17
   4.884500        1.1533112E-17
   5.046000        1.1572451E-17
   5.207500        1.1606346E-17
   5.369000        1.1619891E-17
   5.530500        1.1606359E-17
   5.692000        1.1570235E-17
   5.853500        1.1525801E-17
   6.015000        1.1491744E-17
   6.176500        1.1483906E-17
   6.338000        1.1509002E-17
   6.499500        1.1561861E-17
   6.661000        1.1627295E-17
   6.822500        1.1685923E-17
   6.984000        1.1721641E-17
   7.145500        1.1727797E-17
   7.307000        1.1709604E-17
   7.468500        1.1681805E-17
   7.630000        1.1662512E-17
   7.791500        1.1665678E-17
   7.953000        1.1695214E-17
   8.114500        1.1743166E-17
   8.276000        1.1792718E-17
   8.437500        1.1824883E-17
   8.599000        1.1826217E-17
   8.760500        1.1794478E-17
   8.922000        1.1739900E-17
   9.083500        1.1681541E-17
   9.245000        1.1640091E-17
   9.406500        1.1629963E-17
   9.568000        1.1653837E-17
   9.729500        1.1701775E-17
   9.891000        1.1755328E-17
   10.05250        1.1794943E-17
   10.21400        1.1807753E-17
   10.37550        1.1792609E-17
   10.53700        1.1760357E-17
   10.69850        1.1729271E-17
   10.86000        1.1717491E-17
   11.02150        1.1735525E-17
   11.18300        1.1781833E-17
   11.34450        1.1843278E-17
   11.50600        1.1900262E-17
   11.66750        1.1934487E-17
   11.82900        1.1936247E-17
   11.99050        1.1908303E-17
   12.15200        1.1864841E-17
   12.31350        1.1825885E-17
   12.47500        1.1809430E-17
   12.63650        1.1824414E-17
   12.79800        1.1867316E-17
   12.95950        1.1923708E-17
   13.12100        1.1974090E-17
   13.28250        1.2001673E-17
   13.44400        1.1998997E-17
   13.60550        1.1970750E-17
   13.76700        1.1931738E-17
   13.92850        1.1900817E-17
   14.09000        1.1893286E-17
   14.25150        1.1914769E-17
   14.41300        1.1959035E-17
   14.57450        1.2010580E-17
   14.73600        1.2050915E-17
   14.89750        1.2065983E-17
   15.05900        1.2051758E-17
   15.22050        1.2015786E-17
   15.38200        1.1974102E-17
   15.54350        1.1944787E-17
   15.70500        1.1940782E-17
   15.86650        1.1964818E-17
   16.02800        1.2008464E-17
   16.18950        1.2055623E-17
   16.35100        1.2089047E-17
   16.51250        1.2097205E-17
   16.67400        1.2078803E-17
   16.83550        1.2043157E-17
   16.99700        1.2006364E-17
   17.15850        1.1984853E-17
   17.32000        1.1988906E-17
   17.48150        1.2018751E-17
   17.64300        1.2064699E-17
   17.80450        1.2111219E-17
   17.96600        1.2143228E-17
   18.12750        1.2152048E-17
   18.28900        1.2138651E-17
   18.45050        1.2112948E-17
   18.61200        1.2089493E-17
   18.77350        1.2081416E-17
   18.93500        1.2095051E-17
   19.09650        1.2127424E-17
   19.25800        1.2167539E-17
   19.41950        1.2200892E-17
   19.58100        1.2215331E-17
   19.74250        1.2205904E-17
   19.90400        1.2176781E-17
   20.06550        1.2139541E-17
   20.22700        1.2108608E-17
   20.38850        1.2095699E-17
   20.55000        1.2105522E-17
   20.71150        1.2134367E-17
   20.87300        1.2172042E-17
   21.03450        1.2206253E-17
   21.19600        1.2227596E-17
   21.35750        1.2233141E-17
   21.51900        1.2227223E-17
   21.68050        1.2219247E-17
   21.84200        1.2219462E-17
   22.00350        1.2234515E-17
   22.16500        1.2264583E-17
   22.32650        1.2303214E-17
   22.48800        1.2339886E-17
   22.64950        1.2364165E-17
   22.81100        1.2369768E-17
   22.97250        1.2356900E-17
   23.13400        1.2331990E-17
   23.29550        1.2305027E-17
   23.45700        1.2285645E-17
   23.61850        1.2279547E-17
   23.78000        1.2286710E-17
   23.94150        1.2301961E-17
   24.10300        1.2317594E-17
   24.26450        1.2326838E-17
   24.42600        1.2326696E-17
   24.58750        1.2319020E-17
   24.74900        1.2309483E-17
   24.91050        1.2304964E-17
   25.07200        1.2310542E-17
   25.23350        1.2327360E-17
   25.39500        1.2352229E-17
   25.55650        1.2379037E-17
   25.71800        1.2401308E-17
   25.87950        1.2414770E-17
   26.04100        1.2418888E-17
   26.20250        1.2416743E-17
   26.36400        1.2413437E-17
   26.52550        1.2413762E-17
   26.68700        1.2420191E-17
   26.84850        1.2431998E-17
   27.01000        1.2445843E-17
   27.17150        1.2457439E-17
   27.33300        1.2463527E-17
   27.49450        1.2463272E-17
   27.65600        1.2458484E-17
   27.81750        1.2452655E-17
   27.97900        1.2449265E-17
   28.14050        1.2450207E-17
   28.30200        1.2455030E-17
   28.46350        1.2461338E-17
   28.62500        1.2466138E-17
   28.78650        1.2467459E-17
   28.94800        1.2465465E-17
   29.10950        1.2462520E-17
   29.27100        1.2462143E-17
   29.43250        1.2467344E-17
   29.59400        1.2479083E-17
   29.75550        1.2495635E-17
   29.91700        1.2513163E-17
   30.07850        1.2527322E-17
   30.24000        1.2535181E-17
   30.40150        1.2536568E-17
   30.56300        1.2534206E-17
   30.72450        1.2532483E-17
   30.88600        1.2535404E-17
   31.04750        1.2544624E-17
   31.20900        1.2558493E-17
   31.37050        1.2572627E-17
   31.53200        1.2581839E-17
   31.69350        1.2582597E-17
   31.85500        1.2574953E-17
   32.01650        1.2562986E-17
   32.17800        1.2553453E-17
   32.33950        1.2553126E-17
   32.50100        1.2565888E-17
   32.66250        1.2590867E-17
   32.82400        1.2622462E-17
   32.98550        1.2652368E-17
   33.14700        1.2672815E-17
   33.30850        1.2679690E-17
   33.47000        1.2674237E-17
   33.63150        1.2662533E-17
   33.79300        1.2652943E-17
   33.95450        1.2652528E-17
   34.11600        1.2663937E-17
   34.27750        1.2684108E-17
   34.43900        1.2705399E-17
   34.60050        1.2718766E-17
   34.76200        1.2717709E-17
   34.92350        1.2701335E-17
   35.08500        1.2675206E-17
   35.24650        1.2649534E-17
   35.40800        1.2635342E-17
   35.56950        1.2640114E-17
   35.73100        1.2664684E-17
   35.89250        1.2702693E-17
   36.05400        1.2742886E-17
   36.21550        1.2773450E-17
   36.37700        1.2786629E-17
   36.53850        1.2781773E-17
   36.70000        1.2765535E-17
   36.86150        1.2749078E-17
   37.02300        1.2743372E-17
   37.18450        1.2754512E-17
   37.34600        1.2780992E-17
   37.50750        1.2814092E-17
   37.66900        1.2841326E-17
   37.83050        1.2851564E-17
   37.99200        1.2839773E-17
   38.15350        1.2809380E-17
   38.31500        1.2771232E-17
   38.47650        1.2739494E-17
   38.63800        1.2726103E-17
   38.79950        1.2736034E-17
   38.96100        1.2765311E-17
   39.12250        1.2802627E-17
   39.28400        1.2833914E-17
   39.44550        1.2848043E-17
   39.60700        1.2841331E-17
   39.76850        1.2819027E-17
   39.93000        1.2793179E-17
   40.09150        1.2777726E-17
   40.25300        1.2782812E-17
   40.41450        1.2810637E-17
   40.57600        1.2854486E-17
   40.73750        1.2901350E-17
   40.89900        1.2937053E-17
   41.06050        1.2951819E-17
   41.22200        1.2944054E-17
   41.38350        1.2920834E-17
   41.54500        1.2894944E-17
   41.70650        1.2879656E-17
   41.86800        1.2883350E-17
   42.02950        1.2906108E-17
   42.19100        1.2939668E-17
   42.35250        1.2970730E-17
   42.51400        1.2986309E-17
   42.67550        1.2979014E-17
   42.83700        1.2950137E-17
   42.99850        1.2909318E-17
   43.16000        1.2870932E-17
   43.32150        1.2848603E-17
   43.48300        1.2850036E-17
   43.64450        1.2874176E-17
   43.80600        1.2911824E-17
   43.96750        1.2949424E-17
   44.12900        1.2974502E-17
   44.29050        1.2980573E-17
   44.45200        1.2969560E-17
   44.61350        1.2950773E-17
   44.77500        1.2936917E-17
   44.93650        1.2938749E-17
   45.09800        1.2960578E-17
   45.25950        1.2998401E-17
   45.42100        1.3041416E-17
   45.58250        1.3076264E-17
   45.74400        1.3092303E-17
   45.90550        1.3085804E-17
   46.06700        1.3061410E-17
   46.22850        1.3030321E-17
   46.39000        1.3005955E-17
   46.55150        1.2998833E-17
   46.71300        1.3012672E-17
   46.87450        1.3043189E-17
   47.03600        1.3080010E-17
   47.19750        1.3110845E-17
   47.35900        1.3126270E-17
   47.52050        1.3123260E-17
   47.68200        1.3106118E-17
   47.84350        1.3084525E-17
   48.00500        1.3069526E-17
   48.16650        1.3069053E-17
   48.32800        1.3084751E-17
   48.48950        1.3111333E-17
   48.65100        1.3138710E-17
   48.81250        1.3156015E-17
   48.97400        1.3155952E-17
   49.13550        1.3137766E-17
   49.29700        1.3107655E-17
   49.45850        1.3076480E-17
   49.62000        1.3055652E-17
   49.78150        1.3052815E-17
   49.94300        1.3068980E-17
   50.10450        1.3098263E-17
   50.26600        1.3130285E-17
   50.42750        1.3154279E-17
   50.58900        1.3163263E-17
   50.75050        1.3156636E-17
   50.91200        1.3140206E-17
   51.07350        1.3123677E-17
   51.23500        1.3116653E-17
   51.39650        1.3124752E-17
   51.55800        1.3147396E-17
   51.71950        1.3178100E-17
   51.88100        1.3207114E-17
   52.04250        1.3225321E-17
   52.20400        1.3227819E-17
   52.36550        1.3215781E-17
   52.52700        1.3195882E-17
   52.68850        1.3177587E-17
   52.85000        1.3169403E-17
   53.01150        1.3175583E-17
   53.17300        1.3194552E-17
   53.33450        1.3219635E-17
   53.49600        1.3241768E-17
   53.65750        1.3253099E-17
   53.81900        1.3250059E-17
   53.98050        1.3234749E-17
   54.14200        1.3214075E-17
   54.30350        1.3197065E-17
   54.46500        1.3191383E-17
   54.62650        1.3200448E-17
   54.78800        1.3222262E-17
   54.94950        1.3250356E-17
   55.11100        1.3276465E-17
   55.27250        1.3293818E-17
   55.43400        1.3299732E-17
   55.59550        1.3296471E-17
   55.75700        1.3290062E-17
   55.91850        1.3287588E-17
   56.08000        1.3294095E-17
   56.24150        1.3310406E-17
   56.40300        1.3332727E-17
   56.56450        1.3354178E-17
   56.72600        1.3367590E-17
   56.88750        1.3368389E-17
   57.04900        1.3356394E-17
   57.21050        1.3335844E-17
   57.37200        1.3313691E-17
   57.53350        1.3296923E-17
   57.69500        1.3290035E-17
   57.85650        1.3293635E-17
   58.01800        1.3304691E-17
   58.17950        1.3318166E-17
   58.34100        1.3329291E-17
   58.50250        1.3335496E-17
   58.66400        1.3337229E-17
   58.82550        1.3337426E-17
   58.98700        1.3339971E-17
   59.14850        1.3347855E-17
   59.31000        1.3361836E-17
   59.47150        1.3380101E-17
   59.63300        1.3399029E-17
   59.79450        1.3414630E-17
   59.95600        1.3424048E-17
   60.11750        1.3426509E-17
   60.27900        1.3423373E-17
   60.44050        1.3417372E-17
   60.60200        1.3411419E-17
   60.76350        1.3407530E-17
   60.92500        1.3406274E-17
   61.08650        1.3406937E-17
   61.24800        1.3408189E-17
   61.40950        1.3408931E-17
   61.57100        1.3408870E-17
   61.73250        1.3408582E-17
   61.89400        1.3409082E-17
   62.05550        1.3411164E-17
   62.21700        1.3414899E-17
   62.37850        1.3419552E-17
   62.54000        1.3423995E-17
   62.70150        1.3427396E-17
   62.86300        1.3429796E-17
   63.02450        1.3432237E-17
   63.18600        1.3436320E-17
   63.34750        1.3443358E-17
   63.50900        1.3453547E-17
   63.67050        1.3465607E-17
   63.83200        1.3477153E-17
   63.99350        1.3485706E-17
   64.15500        1.3489917E-17
   64.31650        1.3490403E-17
   64.47800        1.3489713E-17
   64.63950        1.3491341E-17
   64.80100        1.3498144E-17
   64.96250        1.3510857E-17
   65.12400        1.3527450E-17
   65.28550        1.3543704E-17
   65.44700        1.3554865E-17
   65.60850        1.3557736E-17
   65.77000        1.3552262E-17
   65.93150        1.3541868E-17
   66.09300        1.3532284E-17
   66.25450        1.3529274E-17
   66.41600        1.3536195E-17
   66.57750        1.3552431E-17
   66.73900        1.3573445E-17
   66.90050        1.3592496E-17
   67.06200        1.3603361E-17
   67.22350        1.3602947E-17
   67.38500        1.3592671E-17
   67.54650        1.3577984E-17
   67.70800        1.3566178E-17
   67.86950        1.3563343E-17
   68.03100        1.3571733E-17
   68.19250        1.3588677E-17
   68.35400        1.3607534E-17
   68.51550        1.3620384E-17
   68.67700        1.3621375E-17
   68.83850        1.3609358E-17
   69.00000        1.3588669E-17
   69.16150        1.3567681E-17
   69.32300        1.3555614E-17
   69.48450        1.3558877E-17
   69.64600        1.3578428E-17
   69.80750        1.3609247E-17
   69.96900        1.3642227E-17
   70.13050        1.3667744E-17
   70.29200        1.3679481E-17
   70.45350        1.3676938E-17
   70.61500        1.3665548E-17
   70.77650        1.3654331E-17
   70.93800        1.3652007E-17
   71.09950        1.3663190E-17
   71.26100        1.3686252E-17
   71.42250        1.3713802E-17
   71.58400        1.3735625E-17
   71.74550        1.3742896E-17
   71.90700        1.3731934E-17
   72.06850        1.3705924E-17
   72.23000        1.3673866E-17
   72.39150        1.3647130E-17
   72.55300        1.3635037E-17
   72.71450        1.3641246E-17
   72.87600        1.3662432E-17
   73.03750        1.3689771E-17
   73.19900        1.3712616E-17
   73.36050        1.3722836E-17
   73.52200        1.3718059E-17
   73.68350        1.3702493E-17
   73.84500        1.3685037E-17
   74.00650        1.3675475E-17
   74.16800        1.3680341E-17
   74.32950        1.3700138E-17
   74.49100        1.3729055E-17
   74.65250        1.3757263E-17
   74.81400        1.3774844E-17
   74.97550        1.3775760E-17
   75.13700        1.3760257E-17
   75.29850        1.3734755E-17
   75.46000        1.3709287E-17
   75.62150        1.3693537E-17
   75.78300        1.3693076E-17
   75.94450        1.3707291E-17
   76.10600        1.3729795E-17
   76.26750        1.3751137E-17
   76.42900        1.3762681E-17
   76.59050        1.3760100E-17
   76.75200        1.3745077E-17
   76.91350        1.3724587E-17
   77.07500        1.3708058E-17
   77.23650        1.3703598E-17
   77.39800        1.3714798E-17
   77.55950        1.3739379E-17
   77.72100        1.3770195E-17
   77.88250        1.3798146E-17
   78.04400        1.3815801E-17
   78.20550        1.3820268E-17
   78.36700        1.3814181E-17
   78.52850        1.3804437E-17
   78.69000        1.3799260E-17
   78.85150        1.3804785E-17
   79.01300        1.3822556E-17
   79.17450        1.3848922E-17
   79.33600        1.3876521E-17
   79.49750        1.3897238E-17
   79.65900        1.3905406E-17
   79.82050        1.3899996E-17
   79.98200        1.3884959E-17
   80.14350        1.3867623E-17
   80.30500        1.3855854E-17
   80.46650        1.3855089E-17
   80.62800        1.3866422E-17
   80.78950        1.3886429E-17
   80.95100        1.3908736E-17
   81.11250        1.3926648E-17
   81.27400        1.3935770E-17
   81.43550        1.3935631E-17
   81.59700        1.3929665E-17
   81.75850        1.3923667E-17
   81.92000        1.3923314E-17
   82.08150        1.3931793E-17
   82.24300        1.3948442E-17
   82.40450        1.3968925E-17
   82.56600        1.3986857E-17
   82.72750        1.3996247E-17
   82.88900        1.3993783E-17
   83.05050        1.3980107E-17
   83.21200        1.3959566E-17
   83.37350        1.3938596E-17
   83.53500        1.3923327E-17
   83.69650        1.3917383E-17
   83.85800        1.3920675E-17
   84.01950        1.3929693E-17
   84.18100        1.3939100E-17
   84.34250        1.3944004E-17
   84.50400        1.3941982E-17
   84.66550        1.3934046E-17
   84.82700        1.3924165E-17
   84.98850        1.3917554E-17
   85.15000        1.3918426E-17
   85.31150        1.3928142E-17
   85.47300        1.3944497E-17
   85.63450        1.3962476E-17
   85.79600        1.3976168E-17
   85.95750        1.3981078E-17
   86.11900        1.3975905E-17
   86.28050        1.3963060E-17
   86.44200        1.3947698E-17
   86.60350        1.3935679E-17
   86.76500        1.3931270E-17
   86.92650        1.3935540E-17
   87.08800        1.3946081E-17
   87.24950        1.3958173E-17
   87.41100        1.3966882E-17
   87.57250        1.3969228E-17
   87.73400        1.3965490E-17
   87.89550        1.3959118E-17
   88.05700        1.3955260E-17
   88.21850        1.3958547E-17
   88.38000        1.3971051E-17
   88.54150        1.3991302E-17
   88.70300        1.4014780E-17
   88.86450        1.4035705E-17
   89.02600        1.4049373E-17
   89.18750        1.4054078E-17
   89.34900        1.4051787E-17
   89.51050        1.4047282E-17
   89.67200        1.4046098E-17
   89.83350        1.4052126E-17
   89.99500        1.4065902E-17
   90.15650        1.4084305E-17
   90.31800        1.4101838E-17
   90.47950        1.4112965E-17
   90.64100        1.4114522E-17
   90.80250        1.4107153E-17
   90.96400        1.4095168E-17
   91.12550        1.4084788E-17
   91.28700        1.4081562E-17
   91.44850        1.4087996E-17
   91.61000        1.4102463E-17
   91.77150        1.4119890E-17
   91.93300        1.4133947E-17
   92.09450        1.4139867E-17
   92.25600        1.4136614E-17
   92.41750        1.4127481E-17
   92.57900        1.4118752E-17
   92.74050        1.4117015E-17
   92.90200        1.4126212E-17
   93.06350        1.4145733E-17
   93.22500        1.4170429E-17
   93.38650        1.4192576E-17
   93.54800        1.4205006E-17
   93.70950        1.4204077E-17
   93.87100        1.4191208E-17
   94.03250        1.4172276E-17
   94.19400        1.4155120E-17
   94.35550        1.4146193E-17
   94.51700        1.4147821E-17
   94.67850        1.4157238E-17
   94.84000        1.4167864E-17
   95.00150        1.4172266E-17
   95.16300        1.4165580E-17
   95.32450        1.4147876E-17
   95.48600        1.4124428E-17
   95.64750        1.4103757E-17
   95.80900        1.4094172E-17
   95.97050        1.4100286E-17
   96.13200        1.4120992E-17
   96.29350        1.4149743E-17
   96.45500        1.4177105E-17
   96.61650        1.4194528E-17
   96.77800        1.4197781E-17
   96.93950        1.4188631E-17
   97.10100        1.4174013E-17
   97.26250        1.4163054E-17
   97.42400        1.4163144E-17
   97.58550        1.4176724E-17
   97.74700        1.4200173E-17
   97.90850        1.4225281E-17
   98.07000        1.4242773E-17
   98.23150        1.4246356E-17
   98.39300        1.4235601E-17
   98.55450        1.4216350E-17
   98.71600        1.4198416E-17
   98.87750        1.4191531E-17
   99.03900        1.4201177E-17
   99.20050        1.4226142E-17
   99.36200        1.4258877E-17
   99.52350        1.4288523E-17
   99.68500        1.4305399E-17
   99.84650        1.4305008E-17
   100.0080        1.4289871E-17
   100.1695        1.4268373E-17
   100.3310        1.4251129E-17
   100.4925        1.4246447E-17
   100.6540        1.4256820E-17
   100.8155        1.4277963E-17
   100.9770        1.4300778E-17
   101.1385        1.4315396E-17
   101.3000        1.4315484E-17
   101.4615        1.4301025E-17
   101.6230        1.4278343E-17
   101.7845        1.4257407E-17
   101.9460        1.4247594E-17
   102.1075        1.4253718E-17
   102.2690        1.4274017E-17
   102.4305        1.4300884E-17
   102.5920        1.4324060E-17
   102.7535        1.4334875E-17
   102.9150        1.4329789E-17
   103.0765        1.4311785E-17
   103.2380        1.4289024E-17
   103.3995        1.4271415E-17
   103.5610        1.4266487E-17
   103.7225        1.4276317E-17
   103.8840        1.4296765E-17
   104.0455        1.4319340E-17
   104.2070        1.4334860E-17
   104.3685        1.4337388E-17
   104.5300        1.4326747E-17
   104.6915        1.4308534E-17
   104.8530        1.4291656E-17
   105.0145        1.4284393E-17
   105.1760        1.4290740E-17
   105.3375        1.4308585E-17
   105.4990        1.4330593E-17
   105.6605        1.4347372E-17
   105.8220        1.4351617E-17
   105.9835        1.4341384E-17
   106.1450        1.4321031E-17
   106.3065        1.4299433E-17
   106.4680        1.4286223E-17
   106.6295        1.4287735E-17
   106.7910        1.4304410E-17
   106.9525        1.4330790E-17
   107.1140        1.4358085E-17
   107.2755        1.4378072E-17
   107.4370        1.4386620E-17
   107.5985        1.4385275E-17
   107.7600        1.4380236E-17
   107.9215        1.4379259E-17
   108.0830        1.4387946E-17
   108.2445        1.4407064E-17
   108.4060        1.4432103E-17
   108.5675        1.4455229E-17
   108.7290        1.4468702E-17
   108.8905        1.4468257E-17
   109.0520        1.4454973E-17
   109.2135        1.4434839E-17
   109.3750        1.4416266E-17
   109.5365        1.4406636E-17
   109.6980        1.4409366E-17
   109.8595        1.4422715E-17
   110.0210        1.4440788E-17
   110.1825        1.4456245E-17
   110.3440        1.4463518E-17
   110.5055        1.4461157E-17
   110.6670        1.4452313E-17
   110.8285        1.4443177E-17
   110.9900        1.4440085E-17
   111.1515        1.4446574E-17
   111.3130        1.4461666E-17
   111.4745        1.4480194E-17
   111.6360        1.4495005E-17
   111.7975        1.4500120E-17
   111.9590        1.4493434E-17
   112.1205        1.4477740E-17
   112.2820        1.4459605E-17
   112.4435        1.4446542E-17
   112.6050        1.4443760E-17
   112.7665        1.4451911E-17
   112.9280        1.4466888E-17
   113.0895        1.4481739E-17
   113.2510        1.4489832E-17
   113.4125        1.4487829E-17
   113.5740        1.4477098E-17
   113.7355        1.4462944E-17
   113.8970        1.4452038E-17
   114.0585        1.4449252E-17
   114.2200        1.4455390E-17
   114.3815        1.4466860E-17
   114.5430        1.4477421E-17
   114.7045        1.4481173E-17
   114.8660        1.4475370E-17
   115.0275        1.4461776E-17
   115.1890        1.4445953E-17
   115.3505        1.4434803E-17
   115.5120        1.4433511E-17
   115.6735        1.4443280E-17
   115.8350        1.4460828E-17
   115.9965        1.4479868E-17
   116.1580        1.4493864E-17
   116.3195        1.4498832E-17
   116.4810        1.4494951E-17
   116.6425        1.4486321E-17
   116.8040        1.4479001E-17
   116.9655        1.4478235E-17
   117.1270        1.4486087E-17
   117.2885        1.4500522E-17
   117.4500        1.4516348E-17
   117.6115        1.4527558E-17
   117.7730        1.4530101E-17
   117.9345        1.4523801E-17
   118.0960        1.4512627E-17
   118.2575        1.4503098E-17
   118.4190        1.4501522E-17
   118.5805        1.4511236E-17
   118.7420        1.4531045E-17