  -27.90000        5.9056812E-18
  -27.73850        5.9075039E-18
  -27.57700        5.9105608E-18
  -27.41550        5.9140171E-18
  -27.25400        5.9172038E-18
  -27.09250        5.9199050E-18
  -26.93100        5.9223667E-18
  -26.76950        5.9250377E-18
  -26.60800        5.9282215E-18
  -26.44650        5.9318420E-18
  -26.28500        5.9354738E-18
  -26.12350        5.9386001E-18
  -25.96200        5.9409361E-18
  -25.80050        5.9426194E-18
  -25.63900        5.9441344E-18
  -25.47750        5.9460265E-18
  -25.31600        5.9485664E-18
  -25.15450        5.9515860E-18
  -24.99300        5.9545812E-18
  -24.83150        5.9570264E-18
  -24.67000        5.9587022E-18
  -24.50850        5.9598293E-18
  -24.34700        5.9609327E-18
  -24.18550        5.9625069E-18
  -24.02400        5.9647022E-18
  -23.86250        5.9672239E-18
  -23.70100        5.9695069E-18
  -23.53950        5.9710632E-18
  -23.37800        5.9717973E-18
  -23.21650        5.9720881E-18
  -23.05500        5.9725832E-18
  -22.89350        5.9738260E-18
  -22.73200        5.9759291E-18
  -22.57050        5.9784946E-18
  -22.40900        5.9808314E-18
  -22.24750        5.9823530E-18
  -22.08600        5.9829147E-18
  -21.92450        5.9828965E-18
  -21.76300        5.9829763E-18
  -21.60150        5.9837381E-18
  -21.44000        5.9853486E-18
  -21.27850        5.9874844E-18
  -21.11700        5.9895548E-18
  -20.95550        5.9910632E-18
  -20.79400        5.9918954E-18
  -20.63250        5.9923611E-18
  -20.47100        5.9929723E-18
  -20.30950        5.9941014E-18
  -20.14800        5.9957364E-18
  -19.98650        5.9974813E-18
  -19.82500        5.9988089E-18
  -19.66350        5.9994099E-18
  -19.50200        5.9994219E-18
  -19.34050        5.9993925E-18
  -19.17900        5.9999889E-18
  -19.01750        6.0016226E-18
  -18.85600        6.0042179E-18
  -18.69450        6.0072487E-18
  -18.53300        6.0100288E-18
  -18.37150        6.0120628E-18
  -18.21000        6.0132577E-18
  -18.04850        6.0138789E-18
  -17.88700        6.0143012E-18
  -17.72550        6.0147231E-18
  -17.56400        6.0150316E-18
  -17.40250        6.0149096E-18
  -17.24100        6.0141043E-18
  -17.07950        6.0126865E-18
  -16.91800        6.0111215E-18
  -16.75650        6.0100822E-18
  -16.59500        6.0101103E-18
  -16.43350        6.0113196E-18
  -16.27200        6.0133371E-18
  -16.11050        6.0155254E-18
  -15.94900        6.0173568E-18
  -15.78750        6.0187204E-18
  -15.62600        6.0199566E-18
  -15.46450        6.0216093E-18
  -15.30300        6.0240222E-18
  -15.14150        6.0270514E-18
  -14.98000        6.0300565E-18
  -14.81850        6.0322063E-18
  -14.65700        6.0329268E-18
  -14.49550        6.0322415E-18
  -14.33400        6.0308006E-18
  -14.17250        6.0295709E-18
  -14.01100        6.0293555E-18
  -13.84950        6.0303940E-18
  -13.68800        6.0322651E-18
  -13.52650        6.0341366E-18
  -13.36500        6.0352173E-18
  -13.20350        6.0351573E-18
  -13.04200        6.0341866E-18
  -12.88050        6.0329396E-18
  -12.71900        6.0321005E-18
  -12.55750        6.0320847E-18
  -12.39600        6.0329206E-18
  -12.23450        6.0343661E-18
  -12.07300        6.0361446E-18
  -11.91150        6.0381256E-18
  -11.75000        6.0403450E-18
  -11.58850        6.0428679E-18
  -11.42700        6.0456211E-18
  -11.26550        6.0483376E-18
  -11.10400        6.0506669E-18
  -10.94250        6.0524111E-18
  -10.78100        6.0537052E-18
  -10.61950        6.0550051E-18
  -10.45800        6.0568472E-18
  -10.29650        6.0594967E-18
  -10.13500        6.0626966E-18
  -9.973500        6.0656964E-18
  -9.812000        6.0675853E-18
  -9.650500        6.0677627E-18
  -9.489000        6.0662891E-18
  -9.327500        6.0639031E-18
  -9.166000        6.0616813E-18
  -9.004500        6.0605050E-18
  -8.843000        6.0606245E-18
  -8.681500        6.0615481E-18
  -8.520000        6.0623298E-18
  -8.358500        6.0620957E-18
  -8.197000        6.0605340E-18
  -8.035500        6.0580950E-18
  -7.874000        6.0557826E-18
  -7.712500        6.0546800E-18
  -7.551000        6.0554468E-18
  -7.389500        6.0580495E-18
  -7.228000        6.0618467E-18
  -7.066500        6.0659388E-18
  -6.905000        6.0695606E-18
  -6.743500        6.0723230E-18
  -6.582000        6.0742102E-18
  -6.420500        6.0754030E-18
  -6.259000        6.0760846E-18
  -6.097500        6.0763600E-18
  -5.936000        6.0763158E-18
  -5.774500        6.0761363E-18
  -5.613000        6.0761454E-18
  -5.451500        6.0767016E-18
  -5.290000        6.0779825E-18
  -5.128500        6.0798019E-18
  -4.967000        6.0816035E-18
  -4.805500        6.0826917E-18
  -4.644000        6.0826040E-18
  -4.482500        6.0814190E-18
  -4.321000        6.0797990E-18
  -4.159500        6.0787063E-18
  -3.998000        6.0789218E-18
  -3.836500        6.0806216E-18
  -3.675000        6.0832529E-18
  -3.513500        6.0857932E-18
  -3.352000        6.0872664E-18
  -3.190500        6.0872474E-18
  -3.029000        6.0860806E-18
  -2.867500        6.0847067E-18
  -2.706000        6.0841785E-18
  -2.544500        6.0851360E-18
  -2.383000        6.0874959E-18
  -2.221500        6.0905280E-18
  -2.060000        6.0932432E-18
  -1.898500        6.0948814E-18
  -1.737000        6.0952404E-18
  -1.575500        6.0946912E-18
  -1.414000        6.0939206E-18
  -1.252500        6.0935703E-18
  -1.091000        6.0939876E-18
 -0.9295000        6.0951928E-18
 -0.7680000        6.0970139E-18
 -0.6065000        6.0992605E-18
 -0.4450000        6.1017975E-18
 -0.2835000        6.1044891E-18
 -0.1220000        6.1070894E-18
  3.9500002E-02    6.1092061E-18
  0.2010000        6.1104163E-18
  0.3625000        6.1105077E-18
  0.5240000        6.1096929E-18
  0.6855000        6.1086387E-18
  0.8470000        6.1082329E-18
   1.008500        6.1091623E-18
   1.170000        6.1115243E-18
   1.331500        6.1146982E-18
   1.493000        6.1175879E-18
   1.654500        6.1191368E-18
   1.816000        6.1188610E-18
   1.977500        6.1171057E-18
   2.139000        6.1148826E-18
   2.300500        6.1133685E-18
   2.462000        6.1133222E-18
   2.623500        6.1147300E-18
   2.785000        6.1168567E-18
   2.946500        6.1186633E-18
   3.108000        6.1193655E-18
   3.269500        6.1188374E-18
   3.431000        6.1176591E-18
   3.592500        6.1168050E-18
   3.754000        6.1171441E-18
   3.915500        6.1190330E-18
   4.077000        6.1221945E-18
   4.238500        6.1258994E-18
   4.400000        6.1293256E-18
   4.561500        6.1318766E-18
   4.723000        6.1333147E-18
   4.884500        6.1336989E-18
   5.046000        6.1332374E-18
   5.207500        6.1321695E-18
   5.369000        6.1307542E-18
   5.530500        6.1293091E-18
   5.692000        6.1282168E-18
   5.853500        6.1278218E-18
   6.015000        6.1282449E-18
   6.176500        6.1292218E-18
   6.338000        6.1301098E-18
   6.499500        6.1301259E-18
   6.661000        6.1287387E-18
   6.822500        6.1260243E-18
   6.984000        6.1227570E-18
   7.145500        6.1201394E-18
   7.307000        6.1192601E-18
   7.468500        6.1205443E-18
   7.630000        6.1235031E-18
   7.791500        6.1269334E-18
   7.953000        6.1294894E-18
   8.114500        6.1303468E-18
   8.276000        6.1296073E-18
   8.437500        6.1282354E-18
   8.599000        6.1275633E-18
   8.760500        6.1286051E-18
   8.922000        6.1315412E-18
   9.083500        6.1356267E-18
   9.245000        6.1395690E-18
   9.406500        6.1421647E-18
   9.568000        6.1428686E-18
   9.729500        6.1420220E-18
   9.891000        6.1406394E-18
   10.05250        6.1399106E-18
   10.21400        6.1406803E-18
   10.37550        6.1431515E-18
   10.53700        6.1469135E-18
   10.69850        6.1512091E-18
   10.86000        6.1552573E-18
   11.02150        6.1584866E-18
   11.18300        6.1606108E-18
   11.34450        6.1616059E-18
   11.50600        6.1616576E-18
   11.66750        6.1611315E-18
   11.82900        6.1605509E-18
   11.99050        6.1605074E-18
   12.15200        6.1614748E-18
   12.31350        6.1635630E-18
   12.47500        6.1663411E-18
   12.63650        6.1688884E-18
   12.79800        6.1701151E-18
   12.95950        6.1692623E-18
   13.12100        6.1663395E-18
   13.28250        6.1622375E-18
   13.44400        6.1584047E-18
   13.60550        6.1562003E-18
   13.76700        6.1562429E-18
   13.92850        6.1580867E-18
   14.09000        6.1604173E-18
   14.25150        6.1617002E-18
   14.41300        6.1609574E-18
   14.57450        6.1582894E-18
   14.73600        6.1548719E-18
   14.89750        6.1524147E-18
   15.05900        6.1523527E-18
   15.22050        6.1551626E-18
   15.38200        6.1601489E-18
   15.54350        6.1657770E-18
   15.70500        6.1703790E-18
   15.86650        6.1728556E-18
   16.02800        6.1730616E-18
   16.18950        6.1717248E-18
   16.35100        6.1700064E-18
   16.51250        6.1689612E-18
   16.67400        6.1691544E-18
   16.83550        6.1705552E-18
   16.99700        6.1726823E-18
   17.15850        6.1748598E-18
   17.32000        6.1764505E-18
   17.48150        6.1769956E-18
   17.64300        6.1762764E-18
   17.80450        6.1743528E-18
   17.96600        6.1716036E-18
   18.12750        6.1687275E-18
   18.28900        6.1666257E-18
   18.45050        6.1661397E-18
   18.61200        6.1676973E-18
   18.77350        6.1710453E-18
   18.93500        6.1752466E-18
   19.09650        6.1790214E-18
   19.25800        6.1813094E-18
   19.41950        6.1817987E-18
   19.58100        6.1811199E-18
   19.74250        6.1805748E-18
   19.90400        6.1814967E-18
   20.06550        6.1845436E-18
   20.22700        6.1892925E-18
   20.38850        6.1943474E-18
   20.55000        6.1979415E-18
   20.71150        6.1987517E-18
   20.87300        6.1965196E-18
   21.03450        6.1921839E-18
   21.19600        6.1874491E-18
   21.35750        6.1840188E-18
   21.51900        6.1828678E-18
   21.68050        6.1839092E-18
   21.84200        6.1861711E-18
   22.00350        6.1883479E-18
   22.16500        6.1894290E-18
   22.32650        6.1890931E-18
   22.48800        6.1877295E-18
   22.64950        6.1861538E-18
   22.81100        6.1851922E-18
   22.97250        6.1853642E-18
   23.13400        6.1867704E-18
   23.29550        6.1891688E-18
   23.45700        6.1921384E-18
   23.61850        6.1952155E-18
   23.78000        6.1979659E-18
   23.94150        6.2000161E-18
   24.10300        6.2011195E-18
   24.26450        6.2012721E-18
   24.42600        6.2008131E-18
   24.58750        6.2004057E-18
   24.74900        6.2008205E-18
   24.91050        6.2025725E-18
   25.07200        6.2055958E-18
   25.23350        6.2091415E-18
   25.39500        6.2120238E-18
   25.55650        6.2131318E-18
   25.71800        6.2119746E-18
   25.87950        6.2089703E-18
   26.04100        6.2053059E-18
   26.20250        6.2024066E-18
   26.36400        6.2012556E-18
   26.52550        6.2019099E-18
   26.68700        6.2034704E-18
   26.84850        6.2045350E-18
   27.01000        6.2039162E-18
   27.17150        6.2012498E-18
   27.33300        6.1971892E-18
   27.49450        6.1930855E-18
   27.65600        6.1903418E-18
   27.81750        6.1897760E-18
   27.97900        6.1913054E-18
   28.14050        6.1940839E-18
   28.30200        6.1969691E-18
   28.46350        6.1990598E-18
   28.62500        6.2000310E-18
   28.78650        6.2001476E-18
   28.94800        6.1999983E-18
   29.10950        6.2001484E-18
   29.27100        6.2008999E-18
   29.43250        6.2022552E-18
   29.59400        6.2040494E-18
   29.75550        6.2061066E-18
   29.91700        6.2083073E-18
   30.07850        6.2105407E-18
   30.24000        6.2126248E-18
   30.40150        6.2142961E-18
   30.56300        6.2153330E-18
   30.72450        6.2157308E-18
   30.88600        6.2158024E-18
   31.04750        6.2160836E-18
   31.20900        6.2170655E-18
   31.37050        6.2188745E-18
   31.53200        6.2211075E-18
   31.69350        6.2229447E-18
   31.85500        6.2235287E-18
   32.01650        6.2224322E-18
   32.17800        6.2199594E-18
   32.33950        6.2170994E-18
   32.50100        6.2151175E-18
   32.66250        6.2149802E-18
   32.82400        6.2168996E-18
   32.98550        6.2202464E-18
   33.14700        6.2238773E-18
   33.30850        6.2266968E-18
   33.47000        6.2281609E-18
   33.63150        6.2284640E-18
   33.79300        6.2283317E-18
   33.95450        6.2285716E-18
   34.11600        6.2296395E-18
   34.27750        6.2314398E-18
   34.43900        6.2334486E-18
   34.60050        6.2350472E-18
   34.76200        6.2358549E-18
   34.92350        6.2358760E-18
   35.08500        6.2354057E-18
   35.24650        6.2347779E-18
   35.40800        6.2341431E-18
   35.56950        6.2334209E-18
   35.73100        6.2324411E-18
   35.89250        6.2311656E-18
   36.05400        6.2297979E-18
   36.21550        6.2287006E-18
   36.37700        6.2281497E-18
   36.53850        6.2280972E-18
   36.70000        6.2281204E-18
   36.86150        6.2276203E-18
   37.02300        6.2261765E-18
   37.18450        6.2238542E-18
   37.34600        6.2212717E-18
   37.50750        6.2193477E-18
   37.66900        6.2188551E-18
   37.83050        6.2200016E-18
   37.99200        6.2222887E-18
   38.15350        6.2247368E-18
   38.31500        6.2263762E-18
   38.47650        6.2267510E-18
   38.63800        6.2261550E-18
   38.79950        6.2254783E-18
   38.96100        6.2257488E-18
   39.12250        6.2276166E-18
   39.28400        6.2310531E-18
   39.44550        6.2354024E-18
   39.60700        6.2397273E-18
   39.76850        6.2432350E-18
   39.93000        6.2455714E-18
   40.09150        6.2468465E-18
   40.25300        6.2474412E-18
   40.41450        6.2477394E-18
   40.57600        6.2479599E-18
   40.73750        6.2481571E-18
   40.89900        6.2483515E-18
   41.06050        6.2486406E-18
   41.22200        6.2491903E-18
   41.38350        6.2500936E-18
   41.54500        6.2512020E-18
   41.70650        6.2520908E-18
   41.86800        6.2522323E-18
   42.02950        6.2513133E-18
   42.19100        6.2494997E-18
   42.35250        6.2474652E-18
   42.51400        6.2461107E-18
   42.67550        6.2461020E-18
   42.83700        6.2474731E-18
   42.99850        6.2495414E-18
   43.16000        6.2512128E-18
   43.32150        6.2515552E-18
   43.48300        6.2503318E-18
   43.64450        6.2482043E-18
   43.80600        6.2464594E-18
   43.96750        6.2463857E-18
   44.12900        6.2486146E-18
   44.29050        6.2527645E-18
   44.45200        6.2575965E-18
   44.61350        6.2615856E-18
   44.77500        6.2636134E-18
   44.93650        6.2634327E-18
   45.09800        6.2616861E-18
   45.25950        6.2595110E-18
   45.42100        6.2579625E-18
   45.58250        6.2575634E-18
   45.74400        6.2581789E-18
   45.90550        6.2592145E-18
   46.06700        6.2599924E-18
   46.22850        6.2600756E-18
   46.39000        6.2593927E-18
   46.55150        6.2581598E-18
   46.71300        6.2566990E-18
   46.87450        6.2553056E-18
   47.03600        6.2542216E-18
   47.19750        6.2536782E-18
   47.35900        6.2539069E-18
   47.52050        6.2550443E-18
   47.68200        6.2569770E-18
   47.84350        6.2592414E-18
   48.00500        6.2611108E-18
   48.16650        6.2618826E-18
   48.32800        6.2612460E-18
   48.48950        6.2595160E-18
   48.65100        6.2575672E-18
   48.81250        6.2564467E-18
   48.97400        6.2568442E-18
   49.13550        6.2586859E-18
   49.29700        6.2611104E-18
   49.45850        6.2628665E-18
   49.62000        6.2629629E-18
   49.78150        6.2612312E-18
   49.94300        6.2584936E-18
   50.10450        6.2562209E-18
   50.26600        6.2558388E-18
   50.42750        6.2580295E-18
   50.58900        6.2623900E-18
   50.75050        6.2676186E-18
   50.91200        6.2721181E-18
   51.07350        6.2747163E-18
   51.23500        6.2751361E-18
   51.39650        6.2740198E-18
   51.55800        6.2725284E-18
   51.71950        6.2717446E-18
   51.88100        6.2721938E-18
   52.04250        6.2736864E-18
   52.20400        6.2755161E-18
   52.36550        6.2768628E-18
   52.52700        6.2771655E-18
   52.68850        6.2763102E-18
   52.85000        6.2745794E-18
   53.01150        6.2724643E-18
   53.17300        6.2704662E-18
   53.33450        6.2689760E-18
   53.49600        6.2682320E-18
   53.65750        6.2683102E-18
   53.81900        6.2690989E-18
   53.98050        6.2702776E-18
   54.14200        6.2713567E-18
   54.30350        6.2718286E-18
   54.46500        6.2714042E-18
   54.62650        6.2702354E-18
   54.78800        6.2689777E-18
   54.94950        6.2685906E-18
   55.11100        6.2699298E-18
   55.27250        6.2732981E-18
   55.43400        6.2781929E-18
   55.59550        6.2834331E-18
   55.75700        6.2876414E-18
   55.91850        6.2898673E-18
   56.08000        6.2900497E-18
   56.24150        6.2890422E-18
   56.40300        6.2881828E-18
   56.56450        6.2885980E-18
   56.72600        6.2906002E-18
   56.88750        6.2934908E-18
   57.04900        6.2958710E-18
   57.21050        6.2963152E-18
   57.37200        6.2940632E-18
   57.53350        6.2893892E-18
   57.69500        6.2834786E-18
   57.85650        6.2778885E-18
   58.01800        6.2738730E-18
   58.17950        6.2719158E-18
   58.34100        6.2716573E-18
   58.50250        6.2722153E-18
   58.66400        6.2726843E-18
   58.82550        6.2725602E-18
   58.98700        6.2718927E-18
   59.14850        6.2711515E-18
   59.31000        6.2709282E-18
   59.47150        6.2716387E-18
   59.63300        6.2733642E-18
   59.79450        6.2758487E-18
   59.95600        6.2786086E-18
   60.11750        6.2810694E-18
   60.27900        6.2826981E-18
   60.44050        6.2831192E-18
   60.60200        6.2822357E-18
   60.76350        6.2803295E-18
   60.92500        6.2780783E-18
   61.08650        6.2764273E-18
   61.24800        6.2762871E-18
   61.40950        6.2781569E-18
   61.57100        6.2818408E-18
   61.73250        6.2864324E-18
   61.89400        6.2906366E-18
   62.05550        6.2933183E-18
   62.21700        6.2940313E-18
   62.37850        6.2932484E-18
   62.54000        6.2921536E-18
   62.70150        6.2920585E-18
   62.86300        6.2937249E-18
   63.02450        6.2969347E-18
   63.18600        6.3005367E-18
   63.34750        6.3029728E-18
   63.50900        6.3030302E-18
   63.67050        6.3004569E-18
   63.83200        6.2961171E-18
   63.99350        6.2916255E-18
   64.15500        6.2886245E-18
   64.31650        6.2880599E-18
   64.47800        6.2897949E-18
   64.63950        6.2927240E-18
   64.80100        6.2953131E-18
   64.96250        6.2962891E-18
   65.12400        6.2951638E-18
   65.28550        6.2923795E-18
   65.44700        6.2890472E-18
   65.60850        6.2864329E-18
   65.77000        6.2854378E-18
   65.93150        6.2862761E-18
   66.09300        6.2884491E-18
   66.25450        6.2909902E-18
   66.41600        6.2928485E-18
   66.57750        6.2932728E-18
   66.73900        6.2920718E-18
   66.90050        6.2896845E-18
   67.06200        6.2870475E-18
   67.22350        6.2852914E-18
   67.38500        6.2853517E-18
   67.54650        6.2876070E-18
   67.70800        6.2916780E-18
   67.86950        6.2964910E-18
   68.03100        6.3006198E-18
   68.19250        6.3028197E-18
   68.35400        6.3025372E-18
   68.51550        6.3001856E-18
   68.67700        6.2970278E-18
   68.83850        6.2946708E-18
   69.00000        6.2943788E-18
   69.16150        6.2964963E-18
   69.32300        6.3002654E-18
   69.48450        6.3041445E-18
   69.64600        6.3065102E-18
   69.80750        6.3064304E-18
   69.96900        6.3041411E-18
   70.13050        6.3009941E-18
   70.29200        6.2988737E-18
   70.45350        6.2993414E-18
   70.61500        6.3028921E-18
   70.77650        6.3086708E-18
   70.93800        6.3147837E-18
   71.09950        6.3190676E-18
   71.26100        6.3199841E-18
   71.42250        6.3172395E-18
   71.58400        6.3118749E-18
   71.74550        6.3058001E-18
   71.90700        6.3009970E-18
   72.06850        6.2987363E-18
   72.23000        6.2991350E-18
   72.39150        6.3012125E-18
   72.55300        6.3033942E-18
   72.71450        6.3042226E-18
   72.87600        6.3029814E-18
   73.03750        6.2999713E-18
   73.19900        6.2963681E-18
   73.36050        6.2937207E-18
   73.52200        6.2933167E-18
   73.68350        6.2956493E-18
   73.84500        6.3002029E-18
   74.00650        6.3056185E-18
   74.16800        6.3101779E-18
   74.32950        6.3124311E-18
   74.49100        6.3117305E-18
   74.65250        6.3084776E-18
   74.81400        6.3039836E-18
   74.97550        6.2999887E-18
   75.13700        6.2979997E-18
   75.29850        6.2987161E-18
   75.46000        6.3017494E-18
   75.62150        6.3057773E-18
   75.78300        6.3090773E-18
   75.94450        6.3102519E-18
   76.10600        6.3088358E-18
   76.26750        6.3055374E-18
   76.42900        6.3019905E-18
   76.59050        6.3000871E-18
   76.75200        6.3011674E-18
   76.91350        6.3054067E-18
   77.07500        6.3116689E-18
   77.23650        6.3179253E-18
   77.39800        6.3220570E-18
   77.55950        6.3227225E-18
   77.72100        6.3199018E-18
   77.88250        6.3148858E-18
   78.04400        6.3097201E-18
   78.20550        6.3063357E-18
   78.36700        6.3057595E-18
   78.52850        6.3077328E-18
   78.69000        6.3109000E-18
   78.85150        6.3134506E-18
   79.01300        6.3139308E-18
   79.17450        6.3118476E-18
   79.33600        6.3078312E-18
   79.49750        6.3033078E-18
   79.65900        6.2998601E-18
   79.82050        6.2985722E-18
   79.98200        6.2996256E-18
   80.14350        6.3022957E-18
   80.30500        6.3052959E-18
   80.46650        6.3073134E-18
   80.62800        6.3075045E-18
   80.78950        6.3057798E-18
   80.95100        6.3028081E-18
   81.11250        6.2997641E-18
   81.27400        6.2979228E-18
   81.43550        6.2982483E-18
   81.59700        6.3010764E-18
   81.75850        6.3059978E-18
   81.92000        6.3119630E-18
   82.08150        6.3176043E-18
   82.24300        6.3216778E-18
   82.40450        6.3234881E-18
   82.56600        6.3231349E-18
   82.72750        6.3214623E-18
   82.88900        6.3197025E-18
   83.05050        6.3189373E-18
   83.21200        6.3196007E-18
   83.37350        6.3212568E-18
   83.53500        6.3227684E-18
   83.69650        6.3228114E-18
   83.85800        6.3205032E-18
   84.01950        6.3158586E-18
   84.18100        6.3098495E-18
   84.34250        6.3040278E-18
   84.50400        6.2998808E-18
   84.66550        6.2982223E-18
   84.82700        6.2989059E-18
   84.98850        6.3009710E-18
   85.15000        6.3031398E-18
   85.31150        6.3044116E-18
   85.47300        6.3044571E-18
   85.63450        6.3036585E-18
   85.79600        6.3028177E-18
   85.95750        6.3027176E-18
   86.11900        6.3037619E-18
   86.28050        6.3058534E-18
   86.44200        6.3085165E-18
   86.60350        6.3111515E-18
   86.76500        6.3132724E-18
   86.92650        6.3146182E-18
   87.08800        6.3151435E-18
   87.24950        6.3149532E-18
   87.41100        6.3142592E-18
   87.57250        6.3133812E-18
   87.73400        6.3127397E-18
   87.89550        6.3127790E-18
   88.05700        6.3137952E-18
   88.21850        6.3157428E-18
   88.38000        6.3181366E-18
   88.54150        6.3201616E-18
   88.70300        6.3209871E-18
   88.86450        6.3201533E-18
   89.02600        6.3178285E-18
   89.18750        6.3147853E-18
   89.34900        6.3120672E-18
   89.51050        6.3105059E-18
   89.67200        6.3103384E-18
   89.83350        6.3111283E-18
   89.99500        6.3120399E-18
   90.15650        6.3123257E-18
   90.31800        6.3117545E-18
   90.47950        6.3107487E-18
   90.64100        6.3101465E-18
   90.80250        6.3107342E-18
   90.96400        6.3127951E-18
   91.12550        6.3159405E-18
   91.28700        6.3192939E-18
   91.44850        6.3219272E-18
   91.61000        6.3232879E-18
   91.77150        6.3234025E-18
   91.93300        6.3227573E-18
   92.09450        6.3219628E-18
   92.25600        6.3214152E-18
   92.41750        6.3211418E-18
   92.57900        6.3209040E-18
   92.74050        6.3204503E-18
   92.90200        6.3197393E-18
   93.06350        6.3189799E-18
   93.22500        6.3184741E-18
   93.38650        6.3183786E-18
   93.54800        6.3185626E-18
   93.70950        6.3186652E-18
   93.87100        6.3183265E-18
   94.03250        6.3174219E-18
   94.19400        6.3161539E-18
   94.35550        6.3149098E-18
   94.51700        6.3139875E-18
   94.67850        6.3133671E-18
   94.84000        6.3126913E-18
   95.00150        6.3114952E-18
   95.16300        6.3095501E-18
   95.32450        6.3071012E-18
   95.48600        6.3048260E-18
   95.64750        6.3035088E-18
   95.80900        6.3036113E-18
   95.97050        6.3049923E-18
   96.13200        6.3069697E-18
   96.29350        6.3087026E-18
   96.45500        6.3096915E-18
   96.61650        6.3100948E-18
   96.77800        6.3106659E-18
   96.93950        6.3123340E-18
   97.10100        6.3156468E-18
   97.26250        6.3204122E-18
   97.42400        6.3257256E-18
   97.58550        6.3303913E-18
   97.74700        6.3334941E-18
   97.90850        6.3348118E-18
   98.07000        6.3348502E-18
   98.23150        6.3344999E-18
   98.39300        6.3345202E-18
   98.55450        6.3351451E-18
   98.71600        6.3360050E-18
   98.87750        6.3363830E-18
   99.03900        6.3356311E-18
   99.20050        6.3334986E-18
   99.36200        6.3302122E-18
   99.52350        6.3263088E-18
   99.68500        6.3223524E-18
   99.84650        6.3187281E-18
   100.0080        6.3155918E-18
   100.1695        6.3129676E-18
   100.3310        6.3108653E-18
   100.4925        6.3093197E-18
   100.6540        6.3083292E-18
   100.8155        6.3077795E-18
   100.9770        6.3074474E-18
   101.1385        6.3071351E-18
   101.3000        6.3068659E-18
   101.4615        6.3069895E-18
   101.6230        6.3080839E-18
   101.7845        6.3106395E-18
   101.9460        6.3146922E-18
   102.1075        6.3196181E-18
   102.2690        6.3242739E-18
   102.4305        6.3274590E-18
   102.5920        6.3284826E-18
   102.7535        6.3275351E-18
   102.9150        6.3256263E-18
   103.0765        6.3241051E-18
   103.2380        6.3239740E-18
   103.3995        6.3253865E-18
   103.5610        6.3275789E-18
   103.7225        6.3292990E-18
   103.8840        6.3294988E-18
   104.0455        6.3279056E-18
   104.2070        6.3251830E-18
   104.3685        6.3225840E-18
   104.5300        6.3212940E-18
   104.6915        6.3218287E-18
   104.8530        6.3237896E-18
   105.0145        6.3261028E-18
   105.1760        6.3275814E-18
   105.3375        6.3275115E-18
   105.4990        6.3259551E-18
   105.6605        6.3236514E-18
   105.8220        6.3216025E-18
   105.9835        6.3205909E-18
   106.1450        6.3208680E-18
   106.3065        6.3221319E-18
   106.4680        6.3237478E-18
   106.6295        6.3250622E-18
   106.7910        6.3256545E-18
   106.9525        6.3254365E-18
   107.1140        6.3246176E-18
   107.2755        6.3236039E-18
   107.4370        6.3228793E-18
   107.5985        6.3228900E-18
   107.7600        6.3239153E-18
   107.9215        6.3259419E-18
   108.0830        6.3285868E-18
   108.2445        6.3311552E-18
   108.4060        6.3328704E-18
   108.5675        6.3332178E-18
   108.7290        6.3322500E-18
   108.8905        6.3306585E-18
   109.0520        6.3295261E-18
   109.2135        6.3298177E-18
   109.3750        6.3318591E-18
   109.5365        6.3350703E-18
   109.6980        6.3381424E-18
   109.8595        6.3396173E-18
   110.0210        6.3385866E-18
   110.1825        6.3351670E-18
   110.3440        6.3304844E-18
   110.5055        6.3261487E-18
   110.6670        6.3234885E-18
   110.8285        6.3229190E-18
   110.9900        6.3237780E-18
   111.1515        6.3247015E-18
   111.3130        6.3243483E-18
   111.4745        6.3220815E-18
   111.6360        6.3182876E-18
   111.7975        6.3141736E-18
   111.9590        6.3111850E-18
   112.1205        6.3103458E-18
   112.2820        6.3118434E-18
   112.4435        6.3150165E-18
   112.6050        6.3187099E-18
   112.7665        6.3217737E-18
   112.9280        6.3234786E-18
   113.0895        6.3236858E-18
   113.2510        6.3227630E-18
   113.4125        6.3213486E-18
   113.5740        6.3200900E-18
   113.7355        6.3194502E-18
   113.8970        6.3196086E-18
   114.0585        6.3204515E-18
   114.2200        6.3216211E-18
   114.3815        6.3226390E-18
   114.5430        6.3230840E-18
   114.7045        6.3227899E-18
   114.8660        6.3219718E-18
   115.0275        6.3212013E-18
   115.1890        6.3211898E-18
   115.3505        6.3224665E-18
   115.5120        6.3250903E-18
   115.6735        6.3285690E-18
   115.8350        6.3320473E-18
   115.9965        6.3346964E-18
   116.1580        6.3361009E-18
   116.3195        6.3364355E-18
   116.4810        6.3363334E-18
   116.6425        6.3365046E-18
   116.8040        6.3373322E-18
   116.9655        6.3386644E-18
   117.1270        6.3399332E-18
   117.2885        6.3405177E-18
   117.4500        6.3401289E-18
   117.6115        6.3389899E-18
   117.7730        6.3376883E-18
   117.9345        6.3368135E-18
   118.0960        6.3365836E-18
   118.2575        6.3367143E-18
   118.4190        6.3365914E-18
   118.5805        6.3356604E-18
   118.7420        6.3337852E-18