  -27.90000        7.3197740E-19
  -27.73850        7.3329913E-19
  -27.57700        7.3550615E-19
  -27.41550        7.3792147E-19
  -27.25400        7.3988483E-19
  -27.09250        7.4100158E-19
  -26.93100        7.4127894E-19
  -26.76950        7.4110544E-19
  -26.60800        7.4107726E-19
  -26.44650        7.4174578E-19
  -26.28500        7.4338479E-19
  -26.12350        7.4587351E-19
  -25.96200        7.4873768E-19
  -25.80050        7.5133446E-19
  -25.63900        7.5310276E-19
  -25.47750        7.5378333E-19
  -25.31600        7.5352008E-19
  -25.15450        7.5280162E-19
  -24.99300        7.5227155E-19
  -24.83150        7.5248093E-19
  -24.67000        7.5367962E-19
  -24.50850        7.5572524E-19
  -24.34700        7.5814686E-19
  -24.18550        7.6033139E-19
  -24.02400        7.6176381E-19
  -23.86250        7.6222233E-19
  -23.70100        7.6186188E-19
  -23.53950        7.6114761E-19
  -23.37800        7.6067338E-19
  -23.21650        7.6092851E-19
  -23.05500        7.6210983E-19
  -22.89350        7.6404807E-19
  -22.73200        7.6627696E-19
  -22.57050        7.6821685E-19
  -22.40900        7.6940329E-19
  -22.24750        7.6966788E-19
  -22.08600        7.6920270E-19
  -21.92450        7.6847907E-19
  -21.76300        7.6806108E-19
  -21.60150        7.6837836E-19
  -21.44000        7.6955554E-19
  -21.27850        7.7136784E-19
  -21.11700        7.7333426E-19
  -20.95550        7.7490957E-19
  -20.79400        7.7570496E-19
  -20.63250        7.7563625E-19
  -20.47100        7.7495046E-19
  -20.30950        7.7412277E-19
  -20.14800        7.7366647E-19
  -19.98650        7.7393350E-19
  -19.82500        7.7498629E-19
  -19.66350        7.7658792E-19
  -19.50200        7.7831001E-19
  -19.34050        7.7970758E-19
  -19.17900        7.8049107E-19
  -19.01750        7.8062906E-19
  -18.85600        7.8034435E-19
  -18.69450        7.8001281E-19
  -18.53300        7.8000795E-19
  -18.37150        7.8055348E-19
  -18.21000        7.8163889E-19
  -18.04850        7.8302550E-19
  -17.88700        7.8434398E-19
  -17.72550        7.8523516E-19
  -17.56400        7.8549149E-19
  -17.40250        7.8513693E-19
  -17.24100        7.8441863E-19
  -17.07950        7.8371661E-19
  -16.91800        7.8340182E-19
  -16.75650        7.8369873E-19
  -16.59500        7.8460583E-19
  -16.43350        7.8590078E-19
  -16.27200        7.8723694E-19
  -16.11050        7.8827727E-19
  -15.94900        7.8882880E-19
  -15.78750        7.8890971E-19
  -15.62600        7.8872700E-19
  -15.46450        7.8857940E-19
  -15.30300        7.8872147E-19
  -15.14150        7.8925774E-19
  -14.98000        7.9010596E-19
  -14.81850        7.9104471E-19
  -14.65700        7.9181993E-19
  -14.49550        7.9226103E-19
  -14.33400        7.9235781E-19
  -14.17250        7.9226315E-19
  -14.01100        7.9222944E-19
  -13.84950        7.9250050E-19
  -13.68800        7.9321746E-19
  -13.52650        7.9436667E-19
  -13.36500        7.9579733E-19
  -13.20350        7.9728884E-19
  -13.04200        7.9863435E-19
  -12.88050        7.9971610E-19
  -12.71900        8.0052973E-19
  -12.55750        8.0116919E-19
  -12.39600        8.0177314E-19
  -12.23450        8.0245401E-19
  -12.07300        8.0324542E-19
  -11.91150        8.0407953E-19
  -11.75000        8.0480791E-19
  -11.58850        8.0525609E-19
  -11.42700        8.0529295E-19
  -11.26550        8.0489011E-19
  -11.10400        8.0414208E-19
  -10.94250        8.0323580E-19
  -10.78100        8.0238479E-19
  -10.61950        8.0174078E-19
  -10.45800        8.0132920E-19
  -10.29650        8.0103607E-19
  -10.13500        8.0065857E-19
  -9.973500        8.0000101E-19
  -9.812000        7.9897841E-19
  -9.650500        7.9767751E-19
  -9.489000        7.9633763E-19
  -9.327500        7.9526163E-19
  -9.166000        7.9469025E-19
  -9.004500        7.9470654E-19
  -8.843000        7.9520300E-19
  -8.681500        7.9594327E-19
  -8.520000        7.9668086E-19
  -8.358500        7.9728114E-19
  -8.197000        7.9779104E-19
  -8.035500        7.9842414E-19
  -7.874000        7.9945848E-19
  -7.712500        8.0110121E-19
  -7.551000        8.0337740E-19
  -7.389500        8.0609361E-19
  -7.228000        8.0889398E-19
  -7.066500        8.1137805E-19
  -6.905000        8.1323657E-19
  -6.743500        8.1434287E-19
  -6.582000        8.1477435E-19
  -6.420500        8.1476556E-19
  -6.259000        8.1460778E-19
  -6.097500        8.1454269E-19
  -5.936000        8.1467964E-19
  -5.774500        8.1496853E-19
  -5.613000        8.1522930E-19
  -5.451500        8.1523064E-19
  -5.290000        8.1478624E-19
  -5.128500        8.1383333E-19
  -4.967000        8.1247541E-19
  -4.805500        8.1095484E-19
  -4.644000        8.0957914E-19
  -4.482500        8.0861527E-19
  -4.321000        8.0818937E-19
  -4.159500        8.0823735E-19
  -3.998000        8.0853343E-19
  -3.836500        8.0878789E-19
  -3.675000        8.0877734E-19
  -3.513500        8.0845392E-19
  -3.352000        8.0797591E-19
  -3.190500        8.0764778E-19
  -3.029000        8.0779165E-19
  -2.867500        8.0861186E-19
  -2.706000        8.1010517E-19
  -2.544500        8.1206270E-19
  -2.383000        8.1415676E-19
  -2.221500        8.1607359E-19
  -2.060000        8.1763014E-19
  -1.898500        8.1882904E-19
  -1.737000        8.1982532E-19
  -1.575500        8.2083216E-19
  -1.414000        8.2201590E-19
  -1.252500        8.2342656E-19
  -1.091000        8.2499163E-19
 -0.9295000        8.2656333E-19
 -0.7680000        8.2798980E-19
 -0.6065000        8.2916285E-19
 -0.4450000        8.3003759E-19
 -0.2835000        8.3061936E-19
 -0.1220000        8.3093550E-19
  3.9500002E-02    8.3101832E-19
  0.2010000        8.3090117E-19
  0.3625000        8.3063047E-19
  0.5240000        8.3027866E-19
  0.6855000        8.2994091E-19
  0.8470000        8.2971085E-19
   1.008500        8.2964179E-19
   1.170000        8.2971696E-19
   1.331500        8.2984119E-19
   1.493000        8.2986931E-19
   1.654500        8.2965523E-19
   1.816000        8.2910701E-19
   1.977500        8.2822384E-19
   2.139000        8.2710436E-19
   2.300500        8.2592495E-19
   2.462000        8.2488958E-19
   2.623500        8.2416471E-19
   2.785000        8.2381052E-19
   2.946500        8.2374512E-19
   3.108000        8.2375200E-19
   3.269500        8.2354867E-19
   3.431000        8.2289168E-19
   3.592500        8.2169211E-19
   3.754000        8.2008557E-19
   3.915500        8.1842103E-19
   4.077000        8.1715063E-19
   4.238500        8.1665934E-19
   4.400000        8.1708642E-19
   4.561500        8.1822400E-19
   4.723000        8.1955773E-19
   4.884500        8.2045656E-19
   5.046000        8.2043935E-19
   5.207500        8.1941845E-19
   5.369000        8.1779320E-19
   5.530500        8.1634341E-19
   5.692000        8.1594037E-19
   5.853500        8.1719608E-19
   6.015000        8.2018287E-19
   6.176500        8.2436448E-19
   6.338000        8.2877459E-19
   6.499500        8.3238399E-19
   6.661000        8.3452050E-19
   6.822500        8.3515262E-19
   6.984000        8.3491703E-19
   7.145500        8.3485918E-19
   7.307000        8.3598962E-19
   7.468500        8.3883383E-19
   7.630000        8.4316567E-19
   7.791500        8.4803947E-19
   7.953000        8.5211851E-19
   8.114500        8.5417979E-19
   8.276000        8.5359533E-19
   8.437500        8.5060487E-19
   8.599000        8.4625762E-19
   8.760500        8.4203652E-19
   8.922000        8.3930165E-19
   9.083500        8.3877169E-19
   9.245000        8.4024515E-19
   9.406500        8.4268327E-19
   9.568000        8.4462988E-19
   9.729500        8.4481124E-19
   9.891000        8.4268565E-19
   10.05250        8.3871570E-19
   10.21400        8.3424515E-19
   10.37550        8.3100312E-19
   10.53700        8.3042140E-19
   10.69850        8.3302744E-19
   10.86000        8.3817358E-19
   11.02150        8.4422839E-19
   11.18300        8.4918455E-19
   11.34450        8.5144125E-19
   11.50600        8.5046197E-19
   11.66750        8.4701423E-19
   11.82900        8.4289312E-19
   11.99050        8.4020990E-19
   12.15200        8.4052593E-19
   12.31350        8.4417892E-19
   12.47500        8.5009321E-19
   12.63650        8.5616254E-19
   12.79800        8.6007081E-19
   12.95950        8.6022115E-19
   13.12100        8.5639425E-19
   13.28250        8.4986263E-19
   13.44400        8.4290397E-19
   13.60550        8.3790594E-19
   13.76700        8.3642208E-19
   13.92850        8.3855864E-19
   14.09000        8.4294057E-19
   14.25150        8.4727433E-19
   14.41300        8.4928453E-19
   14.57450        8.4766083E-19
   14.73600        8.4261984E-19
   14.89750        8.3585763E-19
   15.05900        8.2990741E-19
   15.22050        8.2714406E-19
   15.38200        8.2883678E-19
   15.54350        8.3461826E-19
   15.70500        8.4258944E-19
   15.86650        8.5002889E-19
   16.02800        8.5442923E-19
   16.18950        8.5447282E-19
   16.35100        8.5055472E-19
   16.51250        8.4463278E-19
   16.67400        8.3946073E-19
   16.83550        8.3748992E-19
   16.99700        8.3988202E-19
   17.15850        8.4602337E-19
   17.32000        8.5375622E-19
   17.48150        8.6023490E-19
   17.64300        8.6307234E-19
   17.80450        8.6132017E-19
   17.96600        8.5588342E-19
   18.12750        8.4919075E-19
   18.28900        8.4424328E-19
   18.45050        8.4341615E-19
   18.61200        8.4750387E-19
   18.77350        8.5538654E-19
   18.93500        8.6446263E-19
   19.09650        8.7167218E-19
   19.25800        8.7469645E-19
   19.41950        8.7285463E-19
   19.58100        8.6734690E-19
   19.74250        8.6075799E-19
   19.90400        8.5601985E-19
   20.06550        8.5525352E-19
   20.22700        8.5894574E-19
   20.38850        8.6577272E-19
   20.55000        8.7313711E-19
   20.71150        8.7819625E-19
   20.87300        8.7897453E-19
   21.03450        8.7512286E-19
   21.19600        8.6804437E-19
   21.35750        8.6033722E-19
   21.51900        8.5478983E-19
   21.68050        8.5330711E-19
   21.84200        8.5618198E-19
   22.00350        8.6199049E-19
   22.16500        8.6814187E-19
   22.32650        8.7188114E-19
   22.48800        8.7135764E-19
   22.64950        8.6634358E-19
   22.81100        8.5833079E-19
   22.97250        8.4996887E-19
   23.13400        8.4405308E-19
   23.29550        8.4246526E-19
   23.45700        8.4546647E-19
   23.61850        8.5160994E-19
   23.78000        8.5831755E-19
   23.94150        8.6288731E-19
   24.10300        8.6354440E-19
   24.26450        8.6012365E-19
   24.42600        8.5411651E-19
   24.58750        8.4806134E-19
   24.74900        8.4453548E-19
   24.91050        8.4514439E-19
   25.07200        8.4990461E-19
   25.23350        8.5726238E-19
   25.39500        8.6471471E-19
   25.55650        8.6979158E-19
   25.71800        8.7099771E-19
   25.87950        8.6835715E-19
   26.04100        8.6336821E-19
   26.20250        8.5839479E-19
   26.36400        8.5574900E-19
   26.52550        8.5682976E-19
   26.68700        8.6163150E-19
   26.84850        8.6879049E-19
   27.01000        8.7612365E-19
   27.17150        8.8143684E-19
   27.33300        8.8330523E-19
   27.49450        8.8154199E-19
   27.65600        8.7721046E-19
   27.81750        8.7219340E-19
   27.97900        8.6848071E-19
   28.14050        8.6744580E-19
   28.30200        8.6936693E-19
   28.46350        8.7335880E-19
   28.62500        8.7773500E-19
   28.78650        8.8065763E-19
   28.94800        8.8083910E-19
   29.10950        8.7803661E-19
   29.27100        8.7316379E-19
   29.43250        8.6797530E-19
   29.59400        8.6443517E-19
   29.75550        8.6400380E-19
   29.91700        8.6710097E-19
   30.07850        8.7295079E-19
   30.24000        8.7985330E-19
   30.40150        8.8578036E-19
   30.56300        8.8907316E-19
   30.72450        8.8898848E-19
   30.88600        8.8590971E-19
   31.04750        8.8116201E-19
   31.20900        8.7651708E-19
   31.37050        8.7356828E-19
   31.53200        8.7319222E-19
   31.69350        8.7528251E-19
   31.85500        8.7882522E-19
   32.01650        8.8228532E-19
   32.17800        8.8416540E-19
   32.33950        8.8353922E-19
   32.50100        8.8039821E-19
   32.66250        8.7567749E-19
   32.82400        8.7096411E-19
   32.98550        8.6795503E-19
   33.14700        8.6784595E-19
   33.30850        8.7085895E-19
   33.47000        8.7608487E-19
   33.63150        8.8172956E-19
   33.79300        8.8570643E-19
   33.95450        8.8638886E-19
   34.11600        8.8324340E-19
   34.27750        8.7710262E-19
   34.43900        8.6994781E-19
   34.60050        8.6423913E-19
   34.76200        8.6202529E-19
   34.92350        8.6415734E-19
   35.08500        8.6991204E-19
   35.24650        8.7720053E-19
   35.40800        8.8331092E-19
   35.56950        8.8591943E-19
   35.73100        8.8398910E-19
   35.89250        8.7820194E-19
   36.05400        8.7074501E-19
   36.21550        8.6451236E-19
   36.37700        8.6201262E-19
   36.53850        8.6439325E-19
   36.70000        8.7095894E-19
   36.86150        8.7938501E-19
   37.02300        8.8657518E-19
   37.18450        8.8985495E-19
   37.34600        8.8805232E-19
   37.50750        8.8203789E-19
   37.66900        8.7449152E-19
   37.83050        8.6894196E-19
   37.99200        8.6841660E-19
   38.15350        8.7420904E-19
   38.31500        8.8525024E-19
   38.47650        8.9836157E-19
   38.63800        9.0935284E-19
   38.79950        9.1458103E-19
   38.96100        9.1237587E-19
   39.12250        9.0377071E-19
   39.28400        8.9219422E-19
   39.44550        8.8220394E-19
   39.60700        8.7772186E-19
   39.76850        8.8045994E-19
   39.93000        8.8918328E-19
   40.09150        9.0014322E-19
   40.25300        9.0854561E-19
   40.41450        9.1050252E-19
   40.57600        9.0468382E-19
   40.73750        8.9297446E-19
   40.89900        8.7983510E-19
   41.06050        8.7057885E-19
   41.22200        8.6922796E-19
   41.38350        8.7681889E-19
   41.54500        8.9085687E-19
   41.70650        9.0617750E-19
   41.86800        9.1691027E-19
   42.02950        9.1877287E-19
   42.19100        9.1079689E-19
   42.35250        8.9577498E-19
   42.51400        8.7922640E-19
   42.67550        8.6726387E-19
   42.83700        8.6419002E-19
   42.99850        8.7077923E-19
   43.16000        8.8394092E-19
   43.32150        8.9792162E-19
   43.48300        9.0659657E-19
   43.64450        9.0594434E-19
   43.80600        8.9572369E-19
   43.96750        8.7966274E-19
   44.12900        8.6404893E-19
   44.29050        8.5524809E-19
   44.45200        8.5712646E-19
   44.61350        8.6940891E-19
   44.77500        8.8767626E-19
   44.93650        9.0503733E-19
   45.09800        9.1484687E-19
   45.25950        9.1339393E-19
   45.42100        9.0146267E-19
   45.58250        8.8409922E-19
   45.74400        8.6864976E-19
   45.90550        8.6181642E-19
   46.06700        8.6692142E-19
   46.22850        8.8249852E-19
   46.39000        9.0280994E-19
   46.55150        9.2010877E-19
   46.71300        9.2774489E-19
   46.87450        9.2285977E-19
   47.03600        9.0755848E-19
   47.19750        8.8807496E-19
   47.35900        8.7226092E-19
   47.52050        8.6641689E-19
   47.68200        8.7274844E-19
   47.84350        8.8848845E-19
   48.00500        9.0703373E-19
   48.16650        9.2064148E-19
   48.32800        9.2358148E-19
   48.48950        9.1447764E-19
   48.65100        8.9688526E-19
   48.81250        8.7787779E-19
   48.97400        8.6520797E-19
   49.13550        8.6419483E-19
   49.29700        8.7557781E-19
   49.45850        8.9520815E-19
   49.62000        9.1568284E-19
   49.78150        9.2928810E-19
   49.94300        9.3105568E-19
   50.10450        9.2072885E-19
   50.26600        9.0283786E-19
   50.42750        8.8486178E-19
   50.58900        8.7421203E-19
   50.75050        8.7524859E-19
   50.91200        8.8753988E-19
   51.07350        9.0606666E-19
   51.23500        9.2328628E-19
   51.39650        9.3223131E-19
   51.55800        9.2937092E-19
   51.71950        9.1607668E-19
   51.88100        8.9807692E-19
   52.04250        8.8313101E-19
   52.20400        8.7786228E-19
   52.36550        8.8504521E-19
   52.52700        9.0246491E-19
   52.68850        9.2380461E-19
   52.85000        9.4119174E-19
   53.01150        9.4835347E-19
   53.17300        9.4308837E-19
   53.33450        9.2805343E-19
   53.49600        9.0956904E-19
   53.65750        8.9496827E-19
   53.81900        8.8958891E-19
   53.98050        8.9465084E-19
   54.14200        9.0687006E-19
   54.30350        9.1992876E-19
   54.46500        9.2716752E-19
   54.62650        9.2437309E-19
   54.78800        9.1151364E-19
   54.94950        8.9273881E-19
   55.11100        8.7466947E-19
   55.27250        8.6370519E-19
   55.43400        8.6345957E-19
   55.59550        8.7336118E-19
   55.75700        8.8896604E-19
   55.91850        9.0381621E-19
   56.08000        9.1207385E-19
   56.24150        9.1084238E-19
   56.40300        9.0124761E-19
   56.56450        8.8786186E-19
   56.72600        8.7674021E-19
   56.88750        8.7289899E-19
   57.04900        8.7827349E-19
   57.21050        8.9098105E-19
   57.37200        9.0616964E-19
   57.53350        9.1807308E-19
   57.69500        9.2240265E-19
   57.85650        9.1808890E-19
   58.01800        9.0765950E-19
   58.17950        8.9612663E-19
   58.34100        8.8886626E-19
   58.50250        8.8939369E-19
   58.66400        8.9795326E-19
   58.82550        9.1149493E-19
   58.98700        9.2501271E-19
   59.14850        9.3365354E-19
   59.31000        9.3470003E-19
   59.47150        9.2860847E-19
   59.63300        9.1869832E-19
   59.79450        9.0966675E-19
   59.95600        9.0559103E-19
   60.11750        9.0826406E-19
   60.27900        9.1654114E-19
   60.44050        9.2692898E-19
   60.60200        9.3512303E-19
   60.76350        9.3780940E-19
   60.92500        9.3397645E-19
   61.08650        9.2521806E-19
   61.24800        9.1495357E-19
   61.40950        9.0693561E-19
   61.57100        9.0369813E-19
   61.73250        9.0558793E-19
   61.89400        9.1074726E-19
   62.05550        9.1600906E-19
   62.21700        9.1829859E-19
   62.37850        9.1593771E-19
   62.54000        9.0932161E-19
   62.70150        9.0070198E-19
   62.86300        8.9321217E-19
   63.02450        8.8955861E-19
   63.18600        8.9093287E-19
   63.34750        8.9658520E-19
   63.50900        9.0422008E-19
   63.67050        9.1100813E-19
   63.83200        9.1477284E-19
   63.99350        9.1483911E-19
   64.15500        9.1219410E-19
   64.31650        9.0891888E-19
   64.47800        9.0716960E-19
   64.63950        9.0817628E-19
   64.80100        9.1170813E-19
   64.96250        9.1623147E-19
   65.12400        9.1966985E-19
   65.28550        9.2039973E-19
   65.44700        9.1801693E-19
   65.60850        9.1352131E-19
   65.77000        9.0884329E-19
   65.93150        9.0595313E-19
   66.09300        9.0596243E-19
   66.25450        9.0865077E-19
   66.41600        9.1262392E-19
   66.57750        9.1602146E-19
   66.73900        9.1742292E-19
   66.90050        9.1652232E-19
   67.06200        9.1424975E-19
   67.22350        9.1228344E-19
   67.38500        9.1219710E-19
   67.54650        9.1464752E-19
   67.70800        9.1899508E-19
   67.86950        9.2355098E-19
   68.03100        9.2633889E-19
   68.19250        9.2602952E-19
   68.35400        9.2260458E-19
   68.51550        9.1744266E-19
   68.67700        9.1275741E-19
   68.83850        9.1063249E-19
   69.00000        9.1207116E-19
   69.16150        9.1650102E-19
   69.32300        9.2196393E-19
   69.48450        9.2593481E-19
   69.64600        9.2643619E-19
   69.80750        9.2295768E-19
   69.96900        9.1677141E-19
   70.13050        9.1047522E-19
   70.29200        9.0692227E-19
   70.45350        9.0797703E-19
   70.61500        9.1363319E-19
   70.77650        9.2189920E-19
   70.93800        9.2954194E-19
   71.09950        9.3341573E-19
   71.26100        9.3182630E-19
   71.42250        9.2534431E-19
   71.58400        9.1667287E-19
   71.74550        9.0958827E-19
   71.90700        9.0734910E-19
   72.06850        9.1125484E-19
   72.23000        9.1997446E-19
   72.39150        9.2999637E-19
   72.55300        9.3704622E-19
   72.71450        9.3790835E-19
   72.87600        9.3188079E-19
   73.03750        9.2120758E-19
   73.19900        9.1026522E-19
   73.36050        9.0379315E-19
   73.52200        9.0490271E-19
   73.68350        9.1370567E-19
   73.84500        9.2717382E-19
   74.00650        9.4032196E-19
   74.16800        9.4824563E-19
   74.32950        9.4816715E-19
   74.49100        9.4061117E-19
   74.65250        9.2920569E-19
   74.81400        9.1915834E-19
   74.97550        9.1504508E-19
   75.13700        9.1882995E-19
   75.29850        9.2896498E-19
   75.46000        9.4096106E-19
   75.62150        9.4922129E-19
   75.78300        9.4937742E-19
   75.94450        9.4016852E-19
   76.10600        9.2406497E-19
   76.26750        9.0635875E-19
   76.42900        8.9307537E-19
   76.59050        8.8855700E-19
   76.75200        8.9370486E-19
   76.91350        9.0562029E-19
   77.07500        9.1880524E-19
   77.23650        9.2744741E-19
   77.39800        9.2784829E-19
   77.55950        9.1998893E-19
   77.72100        9.0756561E-19
   77.88250        8.9645813E-19
   78.04400        8.9225150E-19
   78.20550        8.9784024E-19
   78.36700        9.1212793E-19
   78.52850        9.3038494E-19
   78.69000        9.4614883E-19
   78.85150        9.5387635E-19
   79.01300        9.5124085E-19
   79.17450        9.4010059E-19
   79.33600        9.2571158E-19
   79.49750        9.1451351E-19
   79.65900        9.1141148E-19
   79.82050        9.1771460E-19
   79.98200        9.3059856E-19
   80.14350        9.4433162E-19
   80.30500        9.5272936E-19
   80.46650        9.5180240E-19
   80.62800        9.4146854E-19
   80.78950        9.2560776E-19
   80.95100        9.1044203E-19
   81.11250        9.0193892E-19
   81.27400        9.0333417E-19
   81.43550        9.1381393E-19
   81.59700        9.2889974E-19
   81.75850        9.4235776E-19
   81.92000        9.4881597E-19
   82.08150        9.4598515E-19
   82.24300        9.3556878E-19
   82.40450        9.2248423E-19
   82.56600        9.1275028E-19
   82.72750        9.1092624E-19
   82.88900        9.1818475E-19
   83.05050        9.3181534E-19
   83.21200        9.4635873E-19
   83.37350        9.5589726E-19
   83.53500        9.5653057E-19
   83.69650        9.4801743E-19
   83.85800        9.3387895E-19
   84.01950        9.1993506E-19
   84.18100        9.1187202E-19
   84.34250        9.1286877E-19
   84.50400        9.2227598E-19
   84.66550        9.3590368E-19
   84.82700        9.4779926E-19
   84.98850        9.5277537E-19
   85.15000        9.4860773E-19
   85.31150        9.3698460E-19
   85.47300        9.2279039E-19
   85.63450        9.1202918E-19
   85.79600        9.0927115E-19
   85.95750        9.1570300E-19
   86.11900        9.2861591E-19
   86.28050        9.4254842E-19
   86.44200        9.5158930E-19
   86.60350        9.5186982E-19
   86.76500        9.4317563E-19
   86.92650        9.2901637E-19
   87.08800        9.1512997E-19
   87.24950        9.0707406E-19
   87.41100        9.0791747E-19
   87.57250        9.1701263E-19
   87.73400        9.3032817E-19
   87.89550        9.4218250E-19
   88.05700        9.4763403E-19
   88.21850        9.4451649E-19
   88.38000        9.3428820E-19
   88.54150        9.2137032E-19
   88.70300        9.1127820E-19
   88.86450        9.0833272E-19
   89.02600        9.1390523E-19
   89.18750        9.2589614E-19
   89.34900        9.3963520E-19
   89.51050        9.4981676E-19
   89.67200        9.5265368E-19
   89.83350        9.4737595E-19
   89.99500        9.3647216E-19
   90.15650        9.2460233E-19
   90.31800        9.1664578E-19
   90.47950        9.1570383E-19
   90.64100        9.2187294E-19
   90.80250        9.3228704E-19
   90.96400        9.4238443E-19
   91.12550        9.4785293E-19
   91.28700        9.4643762E-19
   91.44850        9.3885423E-19
   91.61000        9.2844820E-19
   91.77150        9.1976270E-19
   91.93300        9.1664319E-19
   92.09450        9.2067715E-19
   92.25600        9.3061748E-19
   92.41750        9.4298745E-19
   92.57900        9.5357598E-19
   92.74050        9.5915490E-19
   92.90200        9.5870099E-19
   93.06350        9.5363233E-19
   93.22500        9.4703071E-19
   93.38650        9.4222520E-19
   93.54800        9.4138189E-19
   93.70950        9.4469051E-19
   93.87100        9.5043321E-19
   94.03250        9.5585352E-19
   94.19400        9.5838841E-19
   94.35550        9.5673106E-19
   94.51700        9.5128438E-19
   94.67850        9.4388267E-19
   94.84000        9.3694779E-19
   95.00150        9.3248587E-19
   95.16300        9.3133857E-19
   95.32450        9.3297763E-19
   95.48600        9.3587318E-19
   95.64750        9.3823188E-19
   95.80900        9.3876531E-19
   95.97050        9.3716937E-19
   96.13200        9.3414768E-19
   96.29350        9.3100853E-19
   96.45500        9.2904046E-19
   96.61650        9.2895940E-19
   96.77800        9.3065181E-19
   96.93950        9.3329992E-19
   97.10100        9.3580669E-19
   97.26250        9.3730544E-19
   97.42400        9.3751565E-19
   97.58550        9.3679104E-19
   97.74700        9.3585229E-19
   97.90850        9.3535878E-19
   98.07000        9.3554179E-19
   98.23150        9.3608928E-19
   98.39300        9.3633712E-19
   98.55450        9.3566762E-19
   98.71600        9.3389839E-19
   98.87750        9.3145490E-19
   99.03900        9.2922068E-19
   99.20050        9.2812963E-19
   99.36200        9.2870762E-19
   99.52350        9.3078840E-19
   99.68500        9.3357620E-19
   99.84650        9.3602890E-19
   100.0080        9.3738888E-19
   100.1695        9.3758968E-19
   100.3310        9.3732436E-19
   100.4925        9.3772906E-19
   100.6540        9.3981780E-19
   100.8155        9.4394708E-19
   100.9770        9.4956395E-19
   101.1385        9.5537303E-19
   101.3000        9.5984911E-19
   101.4615        9.6186940E-19
   101.6230        9.6117281E-19
   101.7845        9.5844745E-19
   101.9460        9.5500773E-19
   102.1075        9.5221330E-19
   102.2690        9.5090429E-19
   102.4305        9.5108668E-19
   102.5920        9.5200217E-19
   102.7535        9.5252401E-19
   102.9150        9.5169104E-19
   103.0765        9.4914540E-19
   103.2380        9.4529104E-19
   103.3995        9.4112588E-19
   103.5610        9.3783143E-19
   103.7225        9.3630031E-19
   103.8840        9.3679766E-19
   104.0455        9.3888505E-19
   104.2070        9.4162074E-19
   104.3685        9.4394884E-19
   104.5300        9.4510358E-19
   104.6915        9.4486784E-19
   104.8530        9.4358922E-19
   105.0145        9.4197322E-19
   105.1760        9.4074600E-19
   105.3375        9.4034916E-19
   105.4990        9.4079211E-19
   105.6605        9.4172186E-19
   105.8220        9.4265616E-19
   105.9835        9.4325173E-19
   106.1450        9.4347228E-19
   106.3065        9.4355986E-19
   106.4680        9.4384348E-19
   106.6295        9.4450140E-19
   106.7910        9.4541543E-19
   106.9525        9.4622669E-19
   107.1140        9.4656118E-19
   107.2755        9.4630341E-19
   107.4370        9.4575116E-19
   107.5985        9.4553124E-19
   107.7600        9.4628718E-19
   107.9215        9.4828399E-19
   108.0830        9.5114448E-19
   108.2445        9.5389486E-19
   108.4060        9.5534129E-19
   108.5675        9.5463436E-19
   108.7290        9.5174946E-19
   108.8905        9.4762297E-19
   109.0520        9.4383262E-19
   109.2135        9.4193269E-19
   109.3750        9.4272399E-19
   109.5365        9.4580710E-19
   109.6980        9.4964801E-19
   109.8595        9.5216915E-19
   110.0210        9.5163542E-19
   110.1825        9.4745453E-19
   110.3440        9.4053393E-19
   110.5055        9.3301403E-19
   110.6670        9.2745713E-19
   110.8285        9.2582190E-19
   110.9900        9.2864186E-19
   111.1515        9.3477024E-19
   111.3130        9.4180541E-19
   111.4745        9.4704415E-19
   111.6360        9.4858870E-19
   111.7975        9.4614862E-19
   111.9590        9.4120684E-19
   112.1205        9.3645551E-19
   112.2820        9.3469993E-19
   112.4435        9.3767106E-19
   112.6050        9.4522249E-19
   112.7665        9.5526798E-19
   112.9280        9.6451979E-19
   113.0895        9.6976308E-19
   113.2510        9.6916027E-19
   113.4125        9.6305123E-19
   113.5740        9.5389383E-19
   113.7355        9.4533344E-19
   113.8970        9.4075644E-19
   114.0585        9.4190860E-19
   114.2200        9.4816725E-19
   114.3815        9.5678213E-19
   114.5430        9.6401924E-19
   114.7045        9.6673260E-19
   114.8660        9.6371184E-19
   115.0275        9.5622327E-19
   115.1890        9.4750582E-19
   115.3505        9.4142139E-19
   115.5120        9.4082303E-19
   115.6735        9.4632678E-19
   115.8350        9.5600924E-19
   115.9965        9.6615988E-19
   116.1580        9.7277536E-19
   116.3195        9.7318461E-19
   116.4810        9.6712954E-19
   116.6425        9.5686764E-19
   116.8040        9.4625802E-19
   116.9655        9.3921737E-19
   117.1270        9.3816861E-19
   117.2885        9.4310367E-19
   117.4500        9.5163076E-19
   117.6115        9.5997722E-19
   117.7730        9.6453126E-19
   117.9345        9.6331314E-19
   118.0960        9.5677603E-19
   118.2575        9.4761656E-19
   118.4190        9.3966466E-19
   118.5805        9.3630342E-19
   118.7420        9.3905110E-19