  -27.90000        9.5632700E-18
  -27.73850        9.5910814E-18
  -27.57700        9.6363026E-18
  -27.41550        9.6832575E-18
  -27.25400        9.7177170E-18
  -27.09250        9.7329065E-18
  -26.93100        9.7321281E-18
  -26.76950        9.7268565E-18
  -26.60800        9.7311976E-18
  -26.44650        9.7552081E-18
  -26.28500        9.8001034E-18
  -26.12350        9.8574865E-18
  -25.96200        9.9129507E-18
  -25.80050        9.9524113E-18
  -25.63900        9.9683445E-18
  -25.47750        9.9631258E-18
  -25.31600        9.9480099E-18
  -25.15450        9.9381888E-18
  -24.99300        9.9461429E-18
  -24.83150        9.9762192E-18
  -24.67000        1.0022837E-17
  -24.50850        1.0073090E-17
  -24.34700        1.0112572E-17
  -24.18550        1.0131818E-17
  -24.02400        1.0130496E-17
  -23.86250        1.0117484E-17
  -23.70100        1.0106824E-17
  -23.53950        1.0111364E-17
  -23.37800        1.0136964E-17
  -23.21650        1.0179871E-17
  -23.05500        1.0228435E-17
  -22.89350        1.0268379E-17
  -22.73200        1.0289262E-17
  -22.57050        1.0289175E-17
  -22.40900        1.0275594E-17
  -22.24750        1.0261981E-17
  -22.08600        1.0261680E-17
  -21.92450        1.0281881E-17
  -21.76300        1.0320370E-17
  -21.60150        1.0366530E-17
  -21.44000        1.0406147E-17
  -21.27850        1.0427827E-17
  -21.11700        1.0428138E-17
  -20.95550        1.0413119E-17
  -20.79400        1.0395506E-17
  -20.63250        1.0388965E-17
  -20.47100        1.0401941E-17
  -20.30950        1.0433940E-17
  -20.14800        1.0475888E-17
  -19.98650        1.0514360E-17
  -19.82500        1.0537756E-17
  -19.66350        1.0541600E-17
  -19.50200        1.0530577E-17
  -19.34050        1.0516409E-17
  -19.17900        1.0512499E-17
  -19.01750        1.0527792E-17
  -18.85600        1.0562608E-17
  -18.69450        1.0608349E-17
  -18.53300        1.0651247E-17
  -18.37150        1.0678467E-17
  -18.21000        1.0683832E-17
  -18.04850        1.0670579E-17
  -17.88700        1.0649897E-17
  -17.72550        1.0635906E-17
  -17.56400        1.0639335E-17
  -17.40250        1.0662766E-17
  -17.24100        1.0699578E-17
  -17.07950        1.0737080E-17
  -16.91800        1.0762398E-17
  -16.75650        1.0768461E-17
  -16.59500        1.0757344E-17
  -16.43350        1.0739460E-17
  -16.27200        1.0728918E-17
  -16.11050        1.0737141E-17
  -15.94900        1.0767603E-17
  -15.78750        1.0814086E-17
  -15.62600        1.0863259E-17
  -15.46450        1.0900423E-17
  -15.30300        1.0915914E-17
  -15.14150        1.0909248E-17
  -14.98000        1.0889208E-17
  -14.81850        1.0869820E-17
  -14.65700        1.0864030E-17
  -14.49550        1.0877921E-17
  -14.33400        1.0908051E-17
  -14.17250        1.0943104E-17
  -14.01100        1.0969112E-17
  -13.84950        1.0975956E-17
  -13.68800        1.0962202E-17
  -13.52650        1.0936086E-17
  -13.36500        1.0912164E-17
  -13.20350        1.0905030E-17
  -13.04200        1.0922906E-17
  -12.88050        1.0963991E-17
  -12.71900        1.1017230E-17
  -12.55750        1.1067176E-17
  -12.39600        1.1100780E-17
  -12.23450        1.1113030E-17
  -12.07300        1.1108912E-17
  -11.91150        1.1100856E-17
  -11.75000        1.1102827E-17
  -11.58850        1.1123785E-17
  -11.42700        1.1163423E-17
  -11.26550        1.1212095E-17
  -11.10400        1.1254955E-17
  -10.94250        1.1278433E-17
  -10.78100        1.1276154E-17
  -10.61950        1.1251708E-17
  -10.45800        1.1217027E-17
  -10.29650        1.1187159E-17
  -10.13500        1.1173737E-17
  -9.973500        1.1180057E-17
  -9.812000        1.1199917E-17
  -9.650500        1.1220675E-17
  -9.489000        1.1229165E-17
  -9.327500        1.1217815E-17
  -9.166000        1.1188251E-17
  -9.004500        1.1150791E-17
  -8.843000        1.1120028E-17
  -8.681500        1.1108505E-17
  -8.520000        1.1121251E-17
  -8.358500        1.1153657E-17
  -8.197000        1.1193626E-17
  -8.035500        1.1227036E-17
  -7.874000        1.1244053E-17
  -7.712500        1.1243435E-17
  -7.551000        1.1232912E-17
  -7.389500        1.1225471E-17
  -7.228000        1.1233268E-17
  -7.066500        1.1261947E-17
  -6.905000        1.1307935E-17
  -6.743500        1.1359934E-17
  -6.582000        1.1403854E-17
  -6.420500        1.1428960E-17
  -6.259000        1.1432452E-17
  -6.097500        1.1420471E-17
  -5.936000        1.1405166E-17
  -5.774500        1.1399216E-17
  -5.613000        1.1410254E-17
  -5.451500        1.1437678E-17
  -5.290000        1.1473187E-17
  -5.128500        1.1504736E-17
  -4.967000        1.1522083E-17
  -4.805500        1.1521464E-17
  -4.644000        1.1507283E-17
  -4.482500        1.1490139E-17
  -4.321000        1.1482074E-17
  -4.159500        1.1491191E-17
  -3.998000        1.1518018E-17
  -3.836500        1.1555212E-17
  -3.675000        1.1590721E-17
  -3.513500        1.1612993E-17
  -3.352000        1.1615938E-17
  -3.190500        1.1601455E-17
  -3.029000        1.1578466E-17
  -2.867500        1.1558852E-17
  -2.706000        1.1552155E-17
  -2.544500        1.1561387E-17
  -2.383000        1.1581838E-17
  -2.221500        1.1603394E-17
  -2.060000        1.1615303E-17
  -1.898500        1.1611249E-17
  -1.737000        1.1592435E-17
  -1.575500        1.1567271E-17
  -1.414000        1.1547785E-17
  -1.252500        1.1544355E-17
  -1.091000        1.1561068E-17
 -0.9295000        1.1593811E-17
 -0.7680000        1.1631944E-17
 -0.6065000        1.1662845E-17
 -0.4450000        1.1677325E-17
 -0.2835000        1.1673520E-17
 -0.1220000        1.1657526E-17
  3.9500002E-02    1.1640493E-17
  0.2010000        1.1633495E-17
  0.3625000        1.1642494E-17
  0.5240000        1.1665628E-17
  0.6855000        1.1694090E-17
  0.8470000        1.1716182E-17
   1.008500        1.1722704E-17
   1.170000        1.1711293E-17
   1.331500        1.1687734E-17
   1.493000        1.1663676E-17
   1.654500        1.1651700E-17
   1.816000        1.1659921E-17
   1.977500        1.1688448E-17
   2.139000        1.1729292E-17
   2.300500        1.1769781E-17
   2.462000        1.1798025E-17
   2.623500        1.1808076E-17
   2.785000        1.1802507E-17
   2.946500        1.1791208E-17
   3.108000        1.1786890E-17
   3.269500        1.1799245E-17
   3.431000        1.1830345E-17
   3.592500        1.1873405E-17
   3.754000        1.1915519E-17
   3.915500        1.1943246E-17
   4.077000        1.1948584E-17
   4.238500        1.1932629E-17
   4.400000        1.1905240E-17
   4.561500        1.1880743E-17
   4.723000        1.1871560E-17
   4.884500        1.1882601E-17
   5.046000        1.1909010E-17
   5.207500        1.1938382E-17
   5.369000        1.1956476E-17
   5.530500        1.1953881E-17
   5.692000        1.1930566E-17
   5.853500        1.1896164E-17
   6.015000        1.1865844E-17
   6.176500        1.1853624E-17
   6.338000        1.1866161E-17
   6.499500        1.1899877E-17
   6.661000        1.1942683E-17
   6.822500        1.1979541E-17
   6.984000        1.1999276E-17
   7.145500        1.1999548E-17
   7.307000        1.1987736E-17
   7.468500        1.1977330E-17
   7.630000        1.1981497E-17
   7.791500        1.2006770E-17
   7.953000        1.2049748E-17
   8.114500        1.2098321E-17
   8.276000        1.2136871E-17
   8.437500        1.2153097E-17
   8.599000        1.2143389E-17
   8.760500        1.2114331E-17
   8.922000        1.2079719E-17
   9.083500        1.2054467E-17
   9.245000        1.2048188E-17
   9.406500        1.2061273E-17
   9.568000        1.2085186E-17
   9.729500        1.2106703E-17
   9.891000        1.2114162E-17
   10.05250        1.2102908E-17
   10.21400        1.2077522E-17
   10.37550        1.2049890E-17
   10.53700        1.2033970E-17
   10.69850        1.2039563E-17
   10.86000        1.2067844E-17
   11.02150        1.2110616E-17
   11.18300        1.2153665E-17
   11.34450        1.2182768E-17
   11.50600        1.2189749E-17
   11.66750        1.2175920E-17
   11.82900        1.2151398E-17
   11.99050        1.2130557E-17
   12.15200        1.2125621E-17
   12.31350        1.2141226E-17
   12.47500        1.2172367E-17
   12.63650        1.2206714E-17
   12.79800        1.2230292E-17
   12.95950        1.2233995E-17
   13.12100        1.2217974E-17
   13.28250        1.2191843E-17
   13.44400        1.2170528E-17
   13.60550        1.2167601E-17
   13.76700        1.2189102E-17
   13.92850        1.2230688E-17
   14.09000        1.2279400E-17
   14.25150        1.2319285E-17
   14.41300        1.2338359E-17
   14.57450        1.2333805E-17
   14.73600        1.2313089E-17
   14.89750        1.2290559E-17
   15.05900        1.2280986E-17
   15.22050        1.2292943E-17
   15.38200        1.2324921E-17
   15.54350        1.2365925E-17
   15.70500        1.2400313E-17
   15.86650        1.2414780E-17
   16.02800        1.2404426E-17
   16.18950        1.2375168E-17
   16.35100        1.2341357E-17
   16.51250        1.2319533E-17
   16.67400        1.2321068E-17
   16.83550        1.2346959E-17
   16.99700        1.2387217E-17
   17.15850        1.2425221E-17
   17.32000        1.2445195E-17
   17.48150        1.2439487E-17
   17.64300        1.2412307E-17
   17.80450        1.2378126E-17
   17.96600        1.2355306E-17
   18.12750        1.2357767E-17
   18.28900        1.2388480E-17
   18.45050        1.2437840E-17
   18.61200        1.2487813E-17
   18.77350        1.2520065E-17
   18.93500        1.2524347E-17
   19.09650        1.2503234E-17
   19.25800        1.2470894E-17
   19.41950        1.2446433E-17
   19.58100        1.2444850E-17
   19.74250        1.2469861E-17
   19.90400        1.2511975E-17
   20.06550        1.2552759E-17
   20.22700        1.2573380E-17
   20.38850        1.2563460E-17
   20.55000        1.2526157E-17
   20.71150        1.2477075E-17
   20.87300        1.2437409E-17
   21.03450        1.2424487E-17
   21.19600        1.2444020E-17
   21.35750        1.2487688E-17
   21.51900        1.2537188E-17
   21.68050        1.2572857E-17
   21.84200        1.2582872E-17
   22.00350        1.2568688E-17
   22.16500        1.2544211E-17
   22.32650        1.2529081E-17
   22.48800        1.2539192E-17
   22.64950        1.2578882E-17
   22.81100        1.2638437E-17
   22.97250        1.2698107E-17
   23.13400        1.2736837E-17
   23.29550        1.2741727E-17
   23.45700        1.2713883E-17
   23.61850        1.2667940E-17
   23.78000        1.2625451E-17
   23.94150        1.2605163E-17
   24.10300        1.2614642E-17
   24.26450        1.2647115E-17
   24.42600        1.2684957E-17
   24.58750        1.2708214E-17
   24.74900        1.2704155E-17
   24.91050        1.2673414E-17
   25.07200        1.2629850E-17
   25.23350        1.2594210E-17
   25.39500        1.2584572E-17
   25.55650        1.2608029E-17
   25.71800        1.2657433E-17
   25.87950        1.2714635E-17
   26.04100        1.2758679E-17
   26.20250        1.2775132E-17
   26.36400        1.2762344E-17
   26.52550        1.2731871E-17
   26.68700        1.2702967E-17
   26.84850        1.2693715E-17
   27.01000        1.2712823E-17
   27.17150        1.2755769E-17
   27.33300        1.2806990E-17
   27.49450        1.2847055E-17
   27.65600        1.2861529E-17
   27.81750        1.2847500E-17
   27.97900        1.2814822E-17
   28.14050        1.2781555E-17
   28.30200        1.2765728E-17
   28.46350        1.2777149E-17
   28.62500        1.2812990E-17
   28.78650        1.2859137E-17
   28.94800        1.2896680E-17
   29.10950        1.2910617E-17
   29.27100        1.2896782E-17
   29.43250        1.2863776E-17
   29.59400        1.2828984E-17
   29.75550        1.2810516E-17
   29.91700        1.2818825E-17
   30.07850        1.2851946E-17
   30.24000        1.2896567E-17
   30.40150        1.2934376E-17
   30.56300        1.2950604E-17
   30.72450        1.2940733E-17
   30.88600        1.2912282E-17
   31.04750        1.2880945E-17
   31.20900        1.2863060E-17
   31.37050        1.2867971E-17
   31.53200        1.2893856E-17
   31.69350        1.2928835E-17
   31.85500        1.2956694E-17
   32.01650        1.2964515E-17
   32.17800        1.2948655E-17
   32.33950        1.2916424E-17
   32.50100        1.2882796E-17
   32.66250        1.2863779E-17
   32.82400        1.2869428E-17
   32.98550        1.2899633E-17
   33.14700        1.2944418E-17
   33.30850        1.2988538E-17
   33.47000        1.3018240E-17
   33.63150        1.3027163E-17
   33.79300        1.3018816E-17
   33.95450        1.3004576E-17
   34.11600        1.2998171E-17
   34.27750        1.3009148E-17
   34.43900        1.3038291E-17
   34.60050        1.3077047E-17
   34.76200        1.3111240E-17
   34.92350        1.3127414E-17
   35.08500        1.3118950E-17
   35.24650        1.3089187E-17
   35.40800        1.3050138E-17
   35.56950        1.3017354E-17
   35.73100        1.3003263E-17
   35.89250        1.3012005E-17
   36.05400        1.3038055E-17
   36.21550        1.3069176E-17
   36.37700        1.3092287E-17
   36.53850        1.3099484E-17
   36.70000        1.3091481E-17
   36.86150        1.3077012E-17
   37.02300        1.3068570E-17
   37.18450        1.3076505E-17
   37.34600        1.3104167E-17
   37.50750        1.3146223E-17
   37.66900        1.3190838E-17
   37.83050        1.3224700E-17
   37.99200        1.3238651E-17
   38.15350        1.3231441E-17
   38.31500        1.3210012E-17
   38.47650        1.3186268E-17
   38.63800        1.3171821E-17
   38.79950        1.3173053E-17
   38.96100        1.3188669E-17
   39.12250        1.3210642E-17
   39.28400        1.3228079E-17
   39.44550        1.3232177E-17
   39.60700        1.3220156E-17
   39.76850        1.3196508E-17
   39.93000        1.3171100E-17
   40.09150        1.3154989E-17
   40.25300        1.3155724E-17
   40.41450        1.3174157E-17
   40.57600        1.3204081E-17
   40.73750        1.3234916E-17
   40.89900        1.3256253E-17
   41.06050        1.3262341E-17
   41.22200        1.3254540E-17
   41.38350        1.3240667E-17
   41.54500        1.3231459E-17
   41.70650        1.3235724E-17
   41.86800        1.3256256E-17
   42.02950        1.3288392E-17
   42.19100        1.3321881E-17
   42.35250        1.3345289E-17
   42.51400        1.3351009E-17
   42.67550        1.3338631E-17
   42.83700        1.3315116E-17
   42.99850        1.3291683E-17
   43.16000        1.3278797E-17
   43.32150        1.3281540E-17
   43.48300        1.3297467E-17
   43.64450        1.3317919E-17
   43.80600        1.3332156E-17
   43.96750        1.3332447E-17
   44.12900        1.3317748E-17
   44.29050        1.3294333E-17
   44.45200        1.3273099E-17
   44.61350        1.3264784E-17
   44.77500        1.3275278E-17
   44.93650        1.3303076E-17
   45.09800        1.3339936E-17
   45.25950        1.3374376E-17
   45.42100        1.3396437E-17
   45.58250        1.3401681E-17
   45.74400        1.3392805E-17
   45.90550        1.3378248E-17
   46.06700        1.3368397E-17
   46.22850        1.3370991E-17
   46.39000        1.3387645E-17
   46.55150        1.3413036E-17
   46.71300        1.3437197E-17
   46.87450        1.3450016E-17
   47.03600        1.3446008E-17
   47.19750        1.3427188E-17
   47.35900        1.3402640E-17
   47.52050        1.3384824E-17
   47.68200        1.3384183E-17
   47.84350        1.3404454E-17
   48.00500        1.3440793E-17
   48.16650        1.3481719E-17
   48.32800        1.3514064E-17
   48.48950        1.3528776E-17
   48.65100        1.3524918E-17
   48.81250        1.3509971E-17
   48.97400        1.3496210E-17
   49.13550        1.3494776E-17
   49.29700        1.3510205E-17
   49.45850        1.3538066E-17
   49.62000        1.3566870E-17
   49.78150        1.3583425E-17
   49.94300        1.3579124E-17
   50.10450        1.3554167E-17
   50.26600        1.3517729E-17
   50.42750        1.3483954E-17
   50.58900        1.3465676E-17
   50.75050        1.3468798E-17
   50.91200        1.3489904E-17
   51.07350        1.3518149E-17
   51.23500        1.3540478E-17
   51.39650        1.3547691E-17
   51.55800        1.3538605E-17
   51.71950        1.3520430E-17
   51.88100        1.3505302E-17
   52.04250        1.3504557E-17
   52.20400        1.3523386E-17
   52.36550        1.3558265E-17
   52.52700        1.3598303E-17
   52.68850        1.3629960E-17
   52.85000        1.3642964E-17
   53.01150        1.3634794E-17
   53.17300        1.3611697E-17
   53.33450        1.3585803E-17
   53.49600        1.3569675E-17
   53.65750        1.3570763E-17
   53.81900        1.3588243E-17
   53.98050        1.3613589E-17
   54.14200        1.3634569E-17
   54.30350        1.3640849E-17
   54.46500        1.3628727E-17
   54.62650        1.3602878E-17
   54.78800        1.3574391E-17
   54.94950        1.3555910E-17
   55.11100        1.3556074E-17
   55.27250        1.3575748E-17
   55.43400        1.3607743E-17
   55.59550        1.3640159E-17
   55.75700        1.3661773E-17
   55.91850        1.3667035E-17
   56.08000        1.3658400E-17
   56.24150        1.3645031E-17
   56.40300        1.3638521E-17
   56.56450        1.3647617E-17
   56.72600        1.3674262E-17
   56.88750        1.3712640E-17
   57.04900        1.3751557E-17
   57.21050        1.3779102E-17
   57.37200        1.3787592E-17
   57.53350        1.3776743E-17
   57.69500        1.3753724E-17
   57.85650        1.3730093E-17
   58.01800        1.3716860E-17
   58.17950        1.3719786E-17
   58.34100        1.3736921E-17
   58.50250        1.3759537E-17
   58.66400        1.3776125E-17
   58.82550        1.3777767E-17
   58.98700        1.3762526E-17
   59.14850        1.3736750E-17
   59.31000        1.3712593E-17
   59.47150        1.3702688E-17
   59.63300        1.3714339E-17
   59.79450        1.3745913E-17
   59.95600        1.3787202E-17
   60.11750        1.3823786E-17
   60.27900        1.3843471E-17
   60.44050        1.3841846E-17
   60.60200        1.3824269E-17
   60.76350        1.3803232E-17
   60.92500        1.3792237E-17
   61.08650        1.3799127E-17
   61.24800        1.3822100E-17
   61.40950        1.3850456E-17
   61.57100        1.3869793E-17
   61.73250        1.3869135E-17
   61.89400        1.3846517E-17
   62.05550        1.3810304E-17
   62.21700        1.3775555E-17
   62.37850        1.3757206E-17
   62.54000        1.3763252E-17
   62.70150        1.3791132E-17
   62.86300        1.3828959E-17
   63.02450        1.3860966E-17
   63.18600        1.3874656E-17
   63.34750        1.3866409E-17
   63.50900        1.3843002E-17
   63.67050        1.3818382E-17
   63.83200        1.3807128E-17
   63.99350        1.3817588E-17
   64.15500        1.3847841E-17
   64.31650        1.3886333E-17
   64.47800        1.3917026E-17
   64.63950        1.3926745E-17
   64.80100        1.3911363E-17
   64.96250        1.3877960E-17
   65.12400        1.3841866E-17
   65.28550        1.3819848E-17
   65.44700        1.3822526E-17
   65.60850        1.3849506E-17
   65.77000        1.3889550E-17
   65.93150        1.3925761E-17
   66.09300        1.3943431E-17
   66.25450        1.3936925E-17
   66.41600        1.3912318E-17
   66.57750        1.3884549E-17
   66.73900        1.3870399E-17
   66.90050        1.3880584E-17
   67.06200        1.3914716E-17
   67.22350        1.3961474E-17
   67.38500        1.4003840E-17
   67.54650        1.4026924E-17
   67.70800        1.4024609E-17
   67.86950        1.4002049E-17
   68.03100        1.3972945E-17
   68.19250        1.3953056E-17
   68.35400        1.3953043E-17
   68.51550        1.3973873E-17
   68.67700        1.4006744E-17
   68.83850        1.4037315E-17
   69.00000        1.4052219E-17
   69.16150        1.4044877E-17
   69.32300        1.4018198E-17
   69.48450        1.3983098E-17
   69.64600        1.3953663E-17
   69.80750        1.3941142E-17
   69.96900        1.3949331E-17
   70.13050        1.3973314E-17
   70.29200        1.4001963E-17
   70.45350        1.4023027E-17
   70.61500        1.4028561E-17
   70.77650        1.4018374E-17
   70.93800        1.3999997E-17
   71.09950        1.3985283E-17
   71.26100        1.3985105E-17
   71.42250        1.4004424E-17
   71.58400        1.4039877E-17
   71.74550        1.4080957E-17
   71.90700        1.4114328E-17
   72.06850        1.4129496E-17
   72.23000        1.4123353E-17
   72.39150        1.4101578E-17
   72.55300        1.4076134E-17
   72.71450        1.4059905E-17
   72.87600        1.4060846E-17
   73.03750        1.4078323E-17
   73.19900        1.4103406E-17
   73.36050        1.4123103E-17
   73.52200        1.4126579E-17
   73.68350        1.4110528E-17
   73.84500        1.4081097E-17
   74.00650        1.4051370E-17
   74.16800        1.4035511E-17
   74.32950        1.4042223E-17
   74.49100        1.4070585E-17
   74.65250        1.4110254E-17
   74.81400        1.4146006E-17
   74.97550        1.4164576E-17
   75.13700        1.4160636E-17
   75.29850        1.4139149E-17
   75.46000        1.4112954E-17
   75.62150        1.4096680E-17
   75.78300        1.4099805E-17
   75.94450        1.4122084E-17
   76.10600        1.4153548E-17
   76.26750        1.4179107E-17
   76.42900        1.4185641E-17
   76.59050        1.4168300E-17
   76.75200        1.4133049E-17
   76.91350        1.4094218E-17
   77.07500        1.4068150E-17
   77.23650        1.4065804E-17
   77.39800        1.4087744E-17
   77.55950        1.4123838E-17
   77.72100        1.4157916E-17
   77.88250        1.4175311E-17
   78.04400        1.4169831E-17
   78.20550        1.4146800E-17
   78.36700        1.4120701E-17
   78.52850        1.4108275E-17
   78.69000        1.4120385E-17
   78.85150        1.4156467E-17
   79.01300        1.4204422E-17
   79.17450        1.4246090E-17
   79.33600        1.4265780E-17
   79.49750        1.4257763E-17
   79.65900        1.4229065E-17
   79.82050        1.4196199E-17
   79.98200        1.4177356E-17
   80.14350        1.4183797E-17
   80.30500        1.4214568E-17
   80.46650        1.4257010E-17
   80.62800        1.4292799E-17
   80.78950        1.4306616E-17
   80.95100        1.4293357E-17
   81.11250        1.4260494E-17
   81.27400        1.4224587E-17
   81.43550        1.4203613E-17
   81.59700        1.4208754E-17
   81.75850        1.4239456E-17
   81.92000        1.4283952E-17
   82.08150        1.4324886E-17
   82.24300        1.4347319E-17
   82.40450        1.4345386E-17
   82.56600        1.4324641E-17
   82.72750        1.4299121E-17
   82.88900        1.4284683E-17
   83.05050        1.4291679E-17
   83.21200        1.4320301E-17
   83.37350        1.4360626E-17
   83.53500        1.4397179E-17
   83.69650        1.4415897E-17
   83.85800        1.4410366E-17
   84.01950        1.4384515E-17
   84.18100        1.4350608E-17
   84.34250        1.4323532E-17
   84.50400        1.4314013E-17
   84.66550        1.4323870E-17
   84.82700        1.4345519E-17
   84.98850        1.4365879E-17
   85.15000        1.4372804E-17
   85.31150        1.4360967E-17
   85.47300        1.4334438E-17
   85.63450        1.4304764E-17
   85.79600        1.4285512E-17
   85.95750        1.4285942E-17
   86.11900        1.4306747E-17
   86.28050        1.4339853E-17
   86.44200        1.4372247E-17
   86.60350        1.4391990E-17
   86.76500        1.4393492E-17
   86.92650        1.4379691E-17
   87.08800        1.4360178E-17
   87.24950        1.4346328E-17
   87.41100        1.4345858E-17
   87.57250        1.4359344E-17
   87.73400        1.4380274E-17
   87.89550        1.4398397E-17
   88.05700        1.4404687E-17
   88.21850        1.4395507E-17
   88.38000        1.4374157E-17
   88.54150        1.4349264E-17
   88.70300        1.4330934E-17
   88.86450        1.4326457E-17
   89.02600        1.4337427E-17
   89.18750        1.4359356E-17
   89.34900        1.4383777E-17
   89.51050        1.4401894E-17
   89.67200        1.4408204E-17
   89.83350        1.4402690E-17
   89.99500        1.4390708E-17
   90.15650        1.4380585E-17
   90.31800        1.4379886E-17
   90.47950        1.4391938E-17
   90.64100        1.4414092E-17
   90.80250        1.4438679E-17
   90.96400        1.4456353E-17
   91.12550        1.4460455E-17
   91.28700        1.4450410E-17
   91.44850        1.4432441E-17
   91.61000        1.4417073E-17
   91.77150        1.4414411E-17
   91.93300        1.4429329E-17
   92.09450        1.4458914E-17
   92.25600        1.4493577E-17
   92.41750        1.4521399E-17
   92.57900        1.4533732E-17
   92.74050        1.4529305E-17
   92.90200        1.4514791E-17
   93.06350        1.4501510E-17
   93.22500        1.4499876E-17
   93.38650        1.4514318E-17
   93.54800        1.4541205E-17
   93.70950        1.4570686E-17
   93.87100        1.4591479E-17
   94.03250        1.4596219E-17
   94.19400        1.4584751E-17
   94.35550        1.4563949E-17
   94.51700        1.4544246E-17
   94.67850        1.4534733E-17
   94.84000        1.4539140E-17
   95.00150        1.4554488E-17
   95.16300        1.4572878E-17
   95.32450        1.4585353E-17
   95.48600        1.4585945E-17
   95.64750        1.4574135E-17
   95.80900        1.4554686E-17
   95.97050        1.4535191E-17
   96.13200        1.4522572E-17
   96.29350        1.4520135E-17
   96.45500        1.4526441E-17
   96.61650        1.4536329E-17
   96.77800        1.4543597E-17
   96.93950        1.4544049E-17
   97.10100        1.4537562E-17
   97.26250        1.4528236E-17
   97.42400        1.4522524E-17
   97.58550        1.4526160E-17
   97.74700        1.4541298E-17
   97.90850        1.4565208E-17
   98.07000        1.4591198E-17
   98.23150        1.4611419E-17
   98.39300        1.4620260E-17
   98.55450        1.4616764E-17
   98.71600        1.4604946E-17
   98.87750        1.4591851E-17
   99.03900        1.4584354E-17
   99.20050        1.4586074E-17
   99.36200        1.4595926E-17
   99.52350        1.4608812E-17
   99.68500        1.4618174E-17
   99.84650        1.4619158E-17
   100.0080        1.4610987E-17
   100.1695        1.4597483E-17
   100.3310        1.4585530E-17
   100.4925        1.4582172E-17
   100.6540        1.4591605E-17
   100.8155        1.4613342E-17
   100.9770        1.4642281E-17
   101.1385        1.4670650E-17
   101.3000        1.4691014E-17
   101.4615        1.4699124E-17
   101.6230        1.4695494E-17
   101.7845        1.4685038E-17
   101.9460        1.4674910E-17
   102.1075        1.4671435E-17
   102.2690        1.4677380E-17
   102.4305        1.4690734E-17
   102.5920        1.4705620E-17
   102.7535        1.4714928E-17
   102.9150        1.4713652E-17
   103.0765        1.4701393E-17
   103.2380        1.4682823E-17
   103.3995        1.4665813E-17
   103.5610        1.4657932E-17
   103.7225        1.4662944E-17
   103.8840        1.4678964E-17
   104.0455        1.4699213E-17
   104.2070        1.4715072E-17
   104.3685        1.4719957E-17
   104.5300        1.4712215E-17
   104.6915        1.4695682E-17
   104.8530        1.4677772E-17
   105.0145        1.4666063E-17
   105.1760        1.4665014E-17
   105.3375        1.4674270E-17
   105.4990        1.4689192E-17
   105.6605        1.4703283E-17
   105.8220        1.4711275E-17
   105.9835        1.4711487E-17
   106.1450        1.4706366E-17
   106.3065        1.4701074E-17
   106.4680        1.4700882E-17
   106.6295        1.4708656E-17
   106.7910        1.4723532E-17
   106.9525        1.4741358E-17
   107.1140        1.4756510E-17
   107.2755        1.4764241E-17
   107.4370        1.4762578E-17
   107.5985        1.4753039E-17
   107.7600        1.4739955E-17
   107.9215        1.4728715E-17
   108.0830        1.4723643E-17
   108.2445        1.4726336E-17
   108.4060        1.4735167E-17
   108.5675        1.4746131E-17
   108.7290        1.4754707E-17
   108.8905        1.4757959E-17
   109.0520        1.4755923E-17
   109.2135        1.4751681E-17
   109.3750        1.4749977E-17
   109.5365        1.4754935E-17
   109.6980        1.4767885E-17
   109.8595        1.4786356E-17
   110.0210        1.4804885E-17
   110.1825        1.4817381E-17
   110.3440        1.4819996E-17
   110.5055        1.4813109E-17
   110.6670        1.4801376E-17
   110.8285        1.4791670E-17
   110.9900        1.4789895E-17
   111.1515        1.4798185E-17
   111.3130        1.4813872E-17
   111.4745        1.4830802E-17
   111.6360        1.4842418E-17
   111.7975        1.4845076E-17
   111.9590        1.4839986E-17
   112.1205        1.4832662E-17
   112.2820        1.4830142E-17
   112.4435        1.4837263E-17
   112.6050        1.4853965E-17
   112.7665        1.4875038E-17
   112.9280        1.4892497E-17
   113.0895        1.4899427E-17
   113.2510        1.4893347E-17
   113.4125        1.4877432E-17
   113.5740        1.4859008E-17
   113.7355        1.4846130E-17
   113.8970        1.4843877E-17
   114.0585        1.4852155E-17
   114.2200        1.4865963E-17
   114.3815        1.4877952E-17
   114.5430        1.4881967E-17
   114.7045        1.4875904E-17
   114.8660        1.4862525E-17
   115.0275        1.4847985E-17
   115.1890        1.4838826E-17
   115.3505        1.4838955E-17
   115.5120        1.4847975E-17
   115.6735        1.4861550E-17
   115.8350        1.4873493E-17
   115.9965        1.4878564E-17
   116.1580        1.4874770E-17
   116.3195        1.4864159E-17
   116.4810        1.4851823E-17
   116.6425        1.4843572E-17
   116.8040        1.4843309E-17
   116.9655        1.4851262E-17
   117.1270        1.4863918E-17
   117.2885        1.4875684E-17
   117.4500        1.4881482E-17
   117.6115        1.4879110E-17
   117.7730        1.4870221E-17
   117.9345        1.4859527E-17
   118.0960        1.4852566E-17
   118.2575        1.4853068E-17
   118.4190        1.4861138E-17
   118.5805        1.4873123E-17
   118.7420        1.4883279E-17