  -27.90000       -3.1112685E-19
  -27.73850       -3.1160602E-19
  -27.57700       -3.1238675E-19
  -27.41550       -3.1320206E-19
  -27.25400       -3.1380722E-19
  -27.09250       -3.1408423E-19
  -26.93100       -3.1407999E-19
  -26.76950       -3.1397881E-19
  -26.60800       -3.1401834E-19
  -26.44650       -3.1438155E-19
  -26.28500       -3.1511032E-19
  -26.12350       -3.1607957E-19
  -25.96200       -3.1704646E-19
  -25.80050       -3.1775223E-19
  -25.63900       -3.1804143E-19
  -25.47750       -3.1793987E-19
  -25.31600       -3.1765243E-19
  -25.15450       -3.1747125E-19
  -24.99300       -3.1763929E-19
  -24.83150       -3.1823075E-19
  -24.67000       -3.1911842E-19
  -24.50850       -3.2003344E-19
  -24.34700       -3.2070028E-19
  -24.18550       -3.2096252E-19
  -24.02400       -3.2085610E-19
  -23.86250       -3.2058419E-19
  -23.70100       -3.2041834E-19
  -23.53950       -3.2057276E-19
  -23.37800       -3.2111242E-19
  -23.21650       -3.2192608E-19
  -23.05500       -3.2278273E-19
  -22.89350       -3.2343437E-19
  -22.73200       -3.2372416E-19
  -22.57050       -3.2365577E-19
  -22.40900       -3.2338665E-19
  -22.24750       -3.2315881E-19
  -22.08600       -3.2318846E-19
  -21.92450       -3.2357543E-19
  -21.76300       -3.2426607E-19
  -21.60150       -3.2507945E-19
  -21.44000       -3.2578108E-19
  -21.27850       -3.2617849E-19
  -21.11700       -3.2619640E-19
  -20.95550       -3.2591231E-19
  -20.79400       -3.2553913E-19
  -20.63250       -3.2533670E-19
  -20.47100       -3.2550020E-19
  -20.30950       -3.2606444E-19
  -20.14800       -3.2686466E-19
  -19.98650       -3.2760449E-19
  -19.82500       -3.2800836E-19
  -19.66350       -3.2795956E-19
  -19.50200       -3.2758273E-19
  -19.34050       -3.2717338E-19
  -19.17900       -3.2704718E-19
  -19.01750       -3.2737190E-19
  -18.85600       -3.2808077E-19
  -18.69450       -3.2891537E-19
  -18.53300       -3.2956773E-19
  -18.37150       -3.2983744E-19
  -18.21000       -3.2971820E-19
  -18.04850       -3.2938461E-19
  -17.88700       -3.2909342E-19
  -17.72550       -3.2905387E-19
  -17.56400       -3.2934387E-19
  -17.40250       -3.2989307E-19
  -17.24100       -3.3053039E-19
  -17.07950       -3.3106619E-19
  -16.91800       -3.3136861E-19
  -16.75650       -3.3141203E-19
  -16.59500       -3.3128025E-19
  -16.43350       -3.3112991E-19
  -16.27200       -3.3112818E-19
  -16.11050       -3.3138613E-19
  -15.94900       -3.3191261E-19
  -15.78750       -3.3260273E-19
  -15.62600       -3.3327296E-19
  -15.46450       -3.3372767E-19
  -15.30300       -3.3384601E-19
  -15.14150       -3.3364614E-19
  -14.98000       -3.3329077E-19
  -14.81850       -3.3302785E-19
  -14.65700       -3.3308120E-19
  -14.49550       -3.3354047E-19
  -14.33400       -3.3431293E-19
  -14.17250       -3.3516694E-19
  -14.01100       -3.3584308E-19
  -13.84950       -3.3618311E-19
  -13.68800       -3.3619288E-19
  -13.52650       -3.3602186E-19
  -13.36500       -3.3588170E-19
  -13.20350       -3.3594736E-19
  -13.04200       -3.3630227E-19
  -12.88050       -3.3692222E-19
  -12.71900       -3.3769827E-19
  -12.55750       -3.3847983E-19
  -12.39600       -3.3912182E-19
  -12.23450       -3.3953629E-19
  -12.07300       -3.3973381E-19
  -11.91150       -3.3982433E-19
  -11.75000       -3.3997759E-19
  -11.58850       -3.4033496E-19
  -11.42700       -3.4091758E-19
  -11.26550       -3.4158423E-19
  -11.10400       -3.4206097E-19
  -10.94250       -3.4205601E-19
  -10.78100       -3.4140117E-19
  -10.61950       -3.4016533E-19
  -10.45800       -3.3864327E-19
  -10.29650       -3.3722429E-19
  -10.13500       -3.3619399E-19
  -9.973500       -3.3558286E-19
  -9.812000       -3.3516004E-19
  -9.650500       -3.3459125E-19
  -9.489000       -3.3365842E-19
  -9.327500       -3.3241152E-19
  -9.166000       -3.3116103E-19
  -9.004500       -3.3030371E-19
  -8.843000       -3.3010700E-19
  -8.681500       -3.3057115E-19
  -8.520000       -3.3145156E-19
  -8.358500       -3.3241339E-19
  -8.197000       -3.3321234E-19
  -8.035500       -3.3379909E-19
  -7.874000       -3.3430735E-19
  -7.712500       -3.3495172E-19
  -7.551000       -3.3591208E-19
  -7.389500       -3.3725728E-19
  -7.228000       -3.3893410E-19
  -7.066500       -3.4079828E-19
  -6.905000       -3.4266355E-19
  -6.743500       -3.4436291E-19
  -6.582000       -3.4580562E-19
  -6.420500       -3.4702535E-19
  -6.259000       -3.4817637E-19
  -6.097500       -3.4945543E-19
  -5.936000       -3.5097299E-19
  -5.774500       -3.5262777E-19
  -5.613000       -3.5407479E-19
  -5.451500       -3.5483298E-19
  -5.290000       -3.5448885E-19
  -5.128500       -3.5290702E-19
  -4.967000       -3.5033500E-19
  -4.805500       -3.4734813E-19
  -4.644000       -3.4463317E-19
  -4.482500       -3.4271706E-19
  -4.321000       -3.4173752E-19
  -4.159500       -3.4138563E-19
  -3.998000       -3.4106107E-19
  -3.836500       -3.4019814E-19
  -3.675000       -3.3860124E-19
  -3.513500       -3.3661060E-19
  -3.352000       -3.3498189E-19
  -3.190500       -3.3450944E-19
  -3.029000       -3.3558503E-19
  -2.867500       -3.3791964E-19
  -2.706000       -3.4060645E-19
  -2.544500       -3.4251091E-19
  -2.383000       -3.4280184E-19
  -2.221500       -3.4136862E-19
  -2.060000       -3.3889993E-19
  -1.898500       -3.3658083E-19
  -1.737000       -3.3553741E-19
  -1.575500       -3.3630018E-19
  -1.414000       -3.3853980E-19
  -1.252500       -3.4122901E-19
  -1.091000       -3.4315451E-19
 -0.9295000       -3.4354742E-19
 -0.7680000       -3.4250936E-19
 -0.6065000       -3.4099748E-19
 -0.4450000       -3.4034716E-19
 -0.2835000       -3.4156105E-19
 -0.1220000       -3.4471677E-19
  3.9500002E-02   -3.4884556E-19
  0.2010000       -3.5236521E-19
  0.3625000       -3.5386588E-19
  0.5240000       -3.5283508E-19
  0.6855000       -3.4993082E-19
  0.8470000       -3.4664516E-19
   1.008500       -3.4454321E-19
   1.170000       -3.4448355E-19
   1.331500       -3.4624441E-19
   1.493000       -3.4872270E-19
   1.654500       -3.5057259E-19
   1.816000       -3.5093251E-19
   1.977500       -3.4987080E-19
   2.139000       -3.4833305E-19
   2.300500       -3.4763558E-19
   2.462000       -3.4877145E-19
   2.623500       -3.5186593E-19
   2.785000       -3.5605405E-19
   2.946500       -3.5983618E-19
   3.108000       -3.6176186E-19
   3.269500       -3.6110859E-19
   3.431000       -3.5822956E-19
   3.592500       -3.5438560E-19
   3.754000       -3.5113416E-19
   3.915500       -3.4956081E-19
   4.077000       -3.4976409E-19
   4.238500       -3.5084243E-19
   4.400000       -3.5141918E-19
   4.561500       -3.5041865E-19
   4.723000       -3.4768787E-19
   4.884500       -3.4411988E-19
   5.046000       -3.4119717E-19
   5.207500       -3.4020770E-19
   5.369000       -3.4154585E-19
   5.530500       -3.4448030E-19
   5.692000       -3.4751471E-19
   5.853500       -3.4915113E-19
   6.015000       -3.4866069E-19
   6.176500       -3.4644661E-19
   6.338000       -3.4382928E-19
   6.499500       -3.4235672E-19
   6.661000       -3.4300479E-19
   6.822500       -3.4567852E-19
   6.984000       -3.4927037E-19
   7.145500       -3.5225057E-19
   7.307000       -3.5349052E-19
   7.468500       -3.5288174E-19
   7.630000       -3.5141036E-19
   7.791500       -3.5063165E-19
   7.953000       -3.5180302E-19
   8.114500       -3.5512890E-19
   8.276000       -3.5954189E-19
   8.437500       -3.6316481E-19
   8.599000       -3.6424816E-19
   8.760500       -3.6208857E-19
   8.922000       -3.5743780E-19
   9.083500       -3.5215193E-19
   9.245000       -3.4824679E-19
   9.406500       -3.4683830E-19
   9.568000       -3.4755384E-19
   9.729500       -3.4873640E-19
   9.891000       -3.4836890E-19
   10.05250       -3.4524955E-19
   10.21400       -3.3979080E-19
   10.37550       -3.3396838E-19
   10.53700       -3.3041011E-19
   10.69850       -3.3103373E-19
   10.86000       -3.3596000E-19
   11.02150       -3.4329776E-19
   11.18300       -3.4999265E-19
   11.34450       -3.5334173E-19
   11.50600       -3.5240179E-19
   11.66750       -3.4852332E-19
   11.82900       -3.4468104E-19
   11.99050       -3.4392231E-19
   12.15200       -3.4773851E-19
   12.31350       -3.5522237E-19
   12.47500       -3.6347598E-19
   12.63650       -3.6906454E-19
   12.79800       -3.6976119E-19
   12.95950       -3.6568923E-19
   13.12100       -3.5929564E-19
   13.28250       -3.5416948E-19
   13.44400       -3.5329065E-19
   13.60550       -3.5755572E-19
   13.76700       -3.6529214E-19
   13.92850       -3.7300479E-19
   14.09000       -3.7701295E-19
   14.25150       -3.7523371E-19
   14.41300       -3.6824651E-19
   14.57450       -3.5909903E-19
   14.73600       -3.5189633E-19
   14.89750       -3.4981148E-19
   15.05900       -3.5349189E-19
   15.22050       -3.6067463E-19
   15.38200       -3.6726429E-19
   15.54350       -3.6937647E-19
   15.70500       -3.6533680E-19
   15.86650       -3.5662607E-19
   16.02800       -3.4723623E-19
   16.18950       -3.4173276E-19
   16.35100       -3.4296891E-19
   16.51250       -3.5061493E-19
   16.67400       -3.6124091E-19
   16.83550       -3.6993554E-19
   16.99700       -3.7268237E-19
   17.15850       -3.6831083E-19
   17.32000       -3.5905985E-19
   17.48150       -3.4947306E-19
   17.64300       -3.4417507E-19
   17.80450       -3.4560464E-19
   17.96600       -3.5283438E-19
   18.12750       -3.6205339E-19
   18.28900       -3.6846768E-19
   18.45050       -3.6868440E-19
   18.61200       -3.6240140E-19
   18.77350       -3.5257333E-19
   18.93500       -3.4398109E-19
   19.09650       -3.4091274E-19
   19.25800       -3.4507874E-19
   19.41950       -3.5477906E-19
   19.58100       -3.6570544E-19
   19.74250       -3.7298835E-19
   19.90400       -3.7350839E-19
   20.06550       -3.6735859E-19
   20.22700       -3.5777399E-19
   20.38850       -3.4956526E-19
   20.55000       -3.4681760E-19
   20.71150       -3.5096214E-19
   20.87300       -3.6011794E-19
   21.03450       -3.7002444E-19
   21.19600       -3.7608844E-19
   21.35750       -3.7557663E-19
   21.51900       -3.6890916E-19
   21.68050       -3.5946175E-19
   21.84200       -3.5195589E-19
   22.00350       -3.5020302E-19
   22.16500       -3.5526479E-19
   22.32650       -3.6491476E-19
   22.48800       -3.7468862E-19
   22.64950       -3.8002644E-19
   22.81100       -3.7848913E-19
   22.97250       -3.7094372E-19
   23.13400       -3.6113072E-19
   23.29550       -3.5382976E-19
   23.45700       -3.5252018E-19
   23.61850       -3.5770955E-19
   23.78000       -3.6672370E-19
   23.94150       -3.7502164E-19
   24.10300       -3.7838041E-19
   24.26450       -3.7487094E-19
   24.42600       -3.6572041E-19
   24.58750       -3.5469339E-19
   24.74900       -3.4631718E-19
   24.91050       -3.4380720E-19
   25.07200       -3.4764954E-19
   25.23350       -3.5548004E-19
   25.39500       -3.6328452E-19
   25.55650       -3.6732873E-19
   25.71800       -3.6589505E-19
   25.87950       -3.6001757E-19
   26.04100       -3.5291139E-19
   26.20250       -3.4842052E-19
   26.36400       -3.4925075E-19
   26.52550       -3.5578987E-19
   26.68700       -3.6600524E-19
   26.84850       -3.7635410E-19
   27.01000       -3.8326106E-19
   27.17150       -3.8451387E-19
   27.33300       -3.8006954E-19
   27.49450       -3.7201104E-19
   27.65600       -3.6370537E-19
   27.81750       -3.5844290E-19
   27.97900       -3.5807147E-19
   28.14050       -3.6215978E-19
   28.30200       -3.6813901E-19
   28.46350       -3.7245190E-19
   28.62500       -3.7227000E-19
   28.78650       -3.6696185E-19
   28.94800       -3.5853901E-19
   29.10950       -3.5079078E-19
   29.27100       -3.4748151E-19
   29.43250       -3.5053676E-19
   29.59400       -3.5910839E-19
   29.75550       -3.6997395E-19
   29.91700       -3.7901460E-19
   30.07850       -3.8306189E-19
   30.24000       -3.8123379E-19
   30.40150       -3.7522929E-19
   30.56300       -3.6848523E-19
   30.72450       -3.6460736E-19
   30.88600       -3.6575892E-19
   31.04750       -3.7172458E-19
   31.20900       -3.8004780E-19
   31.37050       -3.8719066E-19
   31.53200       -3.9018290E-19
   31.69350       -3.8798141E-19
   31.85500       -3.8190306E-19
   32.01650       -3.7493205E-19
   32.17800       -3.7028037E-19
   32.33950       -3.6990434E-19
   32.50100       -3.7365540E-19
   32.66250       -3.7940497E-19
   32.82400       -3.8404711E-19
   32.98550       -3.8488530E-19
   33.14700       -3.8081687E-19
   33.30850       -3.7284329E-19
   33.47000       -3.6370310E-19
   33.63150       -3.5675511E-19
   33.79300       -3.5457392E-19
   33.95450       -3.5784366E-19
   34.11600       -3.6505773E-19
   34.27750       -3.7319828E-19
   34.43900       -3.7910034E-19
   34.60050       -3.8084458E-19
   34.76200       -3.7849063E-19
   34.92350       -3.7382921E-19
   35.08500       -3.6933594E-19
   35.24650       -3.6691842E-19
   35.40800       -3.6710588E-19
   35.56950       -3.6899310E-19
   35.73100       -3.7084290E-19
   35.89250       -3.7094871E-19
   36.05400       -3.6835725E-19
   36.21550       -3.6321185E-19
   36.37700       -3.5669300E-19
   36.53850       -3.5062749E-19
   36.70000       -3.4690781E-19
   36.86150       -3.4686113E-19
   37.02300       -3.5077023E-19
   37.18450       -3.5774416E-19
   37.34600       -3.6601214E-19
   37.50750       -3.7355634E-19
   37.66900       -3.7881579E-19
   37.83050       -3.8117571E-19
   37.99200       -3.8106626E-19
   38.15350       -3.7966600E-19
   38.31500       -3.7836978E-19
   38.47650       -3.7820567E-19
   38.63800       -3.7940588E-19
   38.79950       -3.8127515E-19
   38.96100       -3.8244349E-19
   39.12250       -3.8147732E-19
   39.28400       -3.7764773E-19
   39.44550       -3.7152722E-19
   39.60700       -3.6505318E-19
   39.76850       -3.6091053E-19
   39.93000       -3.6140307E-19
   40.09150       -3.6730984E-19
   40.25300       -3.7730825E-19
   40.41450       -3.8834535E-19
   40.57600       -3.9686241E-19
   40.73750       -4.0036589E-19
   40.89900       -3.9858866E-19
   41.06050       -3.9363687E-19
   41.22200       -3.8899750E-19
   41.38350       -3.8782523E-19
   41.54500       -3.9131459E-19
   41.70650       -3.9798211E-19
   41.86800       -4.0428527E-19
   42.02950       -4.0633805E-19
   42.19100       -4.0192236E-19
   42.35250       -3.9178559E-19
   42.51400       -3.7950113E-19
   42.67550       -3.6987965E-19
   42.83700       -3.6666360E-19
   42.99850       -3.7064839E-19
   43.16000       -3.7919844E-19
   43.32150       -3.8744553E-19
   43.48300       -3.9061578E-19
   43.64450       -3.8635184E-19
   43.80600       -3.7588527E-19
   43.96750       -3.6347402E-19
   44.12900       -3.5439111E-19
   44.29050       -3.5242906E-19
   44.45200       -3.5813115E-19
   44.61350       -3.6856120E-19
   44.77500       -3.7869179E-19
   44.93650       -3.8374160E-19
   45.09800       -3.8137581E-19
   45.25950       -3.7277711E-19
   45.42100       -3.6211519E-19
   45.58250       -3.5464981E-19
   45.74400       -3.5431054E-19
   45.90550       -3.6183972E-19
   46.06700       -3.7435478E-19
   46.22850       -3.8657229E-19
   46.39000       -3.9316665E-19
   46.55150       -3.9120256E-19
   46.71300       -3.8148365E-19
   46.87450       -3.6819978E-19
   47.03600       -3.5701120E-19
   47.19750       -3.5248554E-19
   47.35900       -3.5609275E-19
   47.52050       -3.6567222E-19
   47.68200       -3.7657754E-19
   47.84350       -3.8391952E-19
   48.00500       -3.8483940E-19
   48.16650       -3.7978126E-19
   48.32800       -3.7219909E-19
   48.48950       -3.6689144E-19
   48.65100       -3.6772909E-19
   48.81250       -3.7581090E-19
   48.97400       -3.8888255E-19
   49.13550       -4.0226579E-19
   49.29700       -4.1089633E-19
   49.45850       -4.1157418E-19
   49.62000       -4.0439658E-19
   49.78150       -3.9273770E-19
   49.94300       -3.8172930E-19
   50.10450       -3.7594607E-19
   50.26600       -3.7732598E-19
   50.42750       -3.8430917E-19
   50.58900       -3.9259788E-19
   50.75050       -3.9718799E-19
   50.91200       -3.9476825E-19
   51.07350       -3.8538707E-19
   51.23500       -3.7264662E-19
   51.39650       -3.6226556E-19
   51.55800       -3.5958596E-19
   51.71950       -3.6704775E-19
   51.88100       -3.8277095E-19
   52.04250       -4.0099979E-19
   52.20400       -4.1440903E-19
   52.36550       -4.1735545E-19
   52.52700       -4.0862079E-19
   52.68850       -3.9223351E-19
   52.85000       -3.7581620E-19
   53.01150       -3.6708962E-19
   53.17300       -3.7014882E-19
   53.33450       -3.8334589E-19
   53.49600       -3.9988558E-19
   53.65750       -4.1095426E-19
   53.81900       -4.0995865E-19
   53.98050       -3.9587980E-19
   54.14200       -3.7408181E-19
   54.30350       -3.5407502E-19
   54.46500       -3.4517037E-19
   54.62650       -3.5201571E-19
   54.78800       -3.7216748E-19
   54.94950       -3.9697814E-19
   55.11100       -4.1551634E-19
   55.27250       -4.1970757E-19
   55.43400       -4.0821953E-19
   55.59550       -3.8712986E-19
   55.75700       -3.6697731E-19
   55.91850       -3.5762169E-19
   56.08000       -3.6343181E-19
   56.24150       -3.8119691E-19
   56.40300       -4.0178117E-19
   56.56450       -4.1468826E-19
   56.72600       -4.1323441E-19
   56.88750       -3.9778834E-19
   57.04900       -3.7552689E-19
   57.21050       -3.5689160E-19
   57.37200       -3.5053130E-19
   57.53350       -3.5919093E-19
   57.69500       -3.7848592E-19
   57.85650       -3.9908200E-19
   58.01800       -4.1118365E-19
   58.17950       -4.0916492E-19
   58.34100       -3.9414226E-19
   58.50250       -3.7329697E-19
   58.66400       -3.5630252E-19
   58.82550       -3.5064882E-19
   58.98700       -3.5813917E-19
   59.14850       -3.7428431E-19
   59.31000       -3.9080799E-19
   59.47150       -3.9993151E-19
   59.63300       -3.9822183E-19
   59.79450       -3.8809006E-19
   59.95600       -3.7628322E-19
   60.11750       -3.7024697E-19
   60.27900       -3.7428979E-19
   60.44050       -3.8747389E-19
   60.60200       -4.0420478E-19
   60.76350       -4.1712309E-19
   60.92500       -4.2077390E-19
   61.08650       -4.1419890E-19
   61.24800       -4.0120850E-19
   61.40950       -3.8828838E-19
   61.57100       -3.8129307E-19
   61.73250       -3.8264416E-19
   61.89400       -3.9043150E-19
   62.05550       -3.9975556E-19
   62.21700       -4.0546814E-19
   62.37850       -4.0477623E-19
   62.54000       -3.9837528E-19
   62.70150       -3.8966951E-19
   62.86300       -3.8273290E-19
   63.02450       -3.8023844E-19
   63.18600       -3.8242633E-19
   63.34750       -3.8745360E-19
   63.50900       -3.9262771E-19
   63.67050       -3.9569014E-19
   63.83200       -3.9549777E-19
   63.99350       -3.9197021E-19
   64.15500       -3.8567679E-19
   64.31650       -3.7751662E-19
   64.47800       -3.6870374E-19
   64.63950       -3.6087104E-19
   64.80100       -3.5595249E-19
   64.96250       -3.5561748E-19
   65.12400       -3.6041831E-19
   65.28550       -3.6915874E-19
   65.44700       -3.7899312E-19
   65.60850       -3.8645671E-19
   65.77000       -3.8906122E-19
   65.93150       -3.8666537E-19
   66.09300       -3.8181023E-19
   66.25450       -3.7865635E-19
   66.41600       -3.8091179E-19
   66.57750       -3.8973356E-19
   66.73900       -4.0274038E-19
   66.90050       -4.1479238E-19
   67.06200       -4.2033449E-19
   67.22350       -4.1620363E-19
   67.38500       -4.0348712E-19
   67.54650       -3.8734200E-19
   67.70800       -3.7473980E-19
   67.86950       -3.7114010E-19
   68.03100       -3.7776031E-19
   68.19250       -3.9087639E-19
   68.35400       -4.0357586E-19
   68.51550       -4.0915946E-19
   68.67700       -4.0450799E-19
   68.83850       -3.9169690E-19
   69.00000       -3.7703978E-19
   69.16150       -3.6798182E-19
   69.32300       -3.6936533E-19
   69.48450       -3.8093471E-19
   69.64600       -3.9736467E-19
   69.80750       -4.1086276E-19
   69.96900       -4.1508652E-19
   70.13050       -4.0838039E-19
   70.29200       -3.9465141E-19
   70.45350       -3.8137341E-19
   70.61500       -3.7571461E-19
   70.77650       -3.8078042E-19
   70.93800       -3.9394810E-19
   71.09950       -4.0817463E-19
   71.26100       -4.1561194E-19
   71.42250       -4.1169304E-19
   71.58400       -3.9756342E-19
   71.74550       -3.7962446E-19
   71.90700       -3.6638864E-19
   72.06850       -3.6422554E-19
   72.23000       -3.7413488E-19
   72.39150       -3.9117953E-19
   72.55300       -4.0688497E-19
   72.71450       -4.1343531E-19
   72.87600       -4.0755266E-19
   73.03750       -3.9214250E-19
   73.19900       -3.7486008E-19
   73.36050       -3.6432599E-19
   73.52200       -3.6586597E-19
   73.68350       -3.7889173E-19
   73.84500       -3.9719055E-19
   74.00650       -4.1197989E-19
   74.16800       -4.1619817E-19
   74.32950       -4.0792389E-19
   74.49100       -3.9125002E-19
   74.65250       -3.7422750E-19
   74.81400       -3.6491921E-19
   74.97550       -3.6755292E-19
   75.13700       -3.8064507E-19
   75.29850       -3.9794258E-19
   75.46000       -4.1159080E-19
   75.62150       -4.1589610E-19
   75.78300       -4.0983829E-19
   75.94450       -3.9721472E-19
   76.10600       -3.8452794E-19
   76.26750       -3.7779145E-19
   76.42900       -3.7983694E-19
   76.59050       -3.8930956E-19
   76.75200       -4.0165254E-19
   76.91350       -4.1142335E-19
   77.07500       -4.1475490E-19
   77.23650       -4.1086426E-19
   77.39800       -4.0206652E-19
   77.55950       -3.9247171E-19
   77.72100       -3.8607112E-19
   77.88250       -3.8509636E-19
   78.04400       -3.8927650E-19
   78.20550       -3.9619123E-19
   78.36700       -4.0245098E-19
   78.52850       -4.0514244E-19
   78.69000       -4.0293307E-19
   78.85150       -3.9644906E-19
   79.01300       -3.8783932E-19
   79.17450       -3.7980853E-19
   79.33600       -3.7453893E-19
   79.49750       -3.7293492E-19
   79.65900       -3.7442217E-19
   79.82050       -3.7732167E-19
   79.98200       -3.7960065E-19
   80.14350       -3.7972385E-19
   80.30500       -3.7731112E-19
   80.46650       -3.7335345E-19
   80.62800       -3.6988095E-19
   80.78950       -3.6917929E-19
   80.95100       -3.7281881E-19
   81.11250       -3.8087436E-19
   81.27400       -3.9169941E-19
   81.43550       -4.0239620E-19
   81.59700       -4.0985822E-19
   81.75850       -4.1198695E-19
   81.92000       -4.0860990E-19
   82.08150       -4.0167425E-19
   82.24300       -3.9459803E-19
   82.40450       -3.9093409E-19
   82.56600       -3.9286119E-19
   82.72750       -4.0011944E-19
   82.88900       -4.0992799E-19
   83.05050       -4.1805607E-19
   83.21200       -4.2069248E-19
   83.37350       -4.1629839E-19
   83.53500       -4.0653081E-19
   83.69650       -3.9566186E-19
   83.85800       -3.8865926E-19
   84.01950       -3.8879146E-19
   84.18100       -3.9595887E-19
   84.34250       -4.0661374E-19
   84.50400       -4.1537854E-19
   84.66550       -4.1758246E-19
   84.82700       -4.1150690E-19
   84.98850       -3.9924826E-19
   85.15000       -3.8578217E-19
   85.31150       -3.7666507E-19
   85.47300       -3.7543515E-19
   85.63450       -3.8194687E-19
   85.79600       -3.9247673E-19
   85.95750       -4.0157887E-19
   86.11900       -4.0482028E-19
   86.28050       -4.0103021E-19
   86.44200       -3.9289386E-19
   86.60350       -3.8554281E-19
   86.76500       -3.8385753E-19
   86.92650       -3.8989145E-19
   87.08800       -4.0177127E-19
   87.24950       -4.1463266E-19
   87.41100       -4.2306618E-19
   87.57250       -4.2377212E-19
   87.73400       -4.1705940E-19
   87.89550       -4.0649759E-19
   88.05700       -3.9700146E-19
   88.21850       -3.9238967E-19
   88.38000       -3.9365135E-19
   88.54150       -3.9871517E-19
   88.70300       -4.0369767E-19
   88.86450       -4.0492275E-19
   89.02600       -4.0068916E-19
   89.18750       -3.9196884E-19
   89.34900       -3.8180090E-19
   89.51050       -3.7376166E-19
   89.67200       -3.7028476E-19
   89.83350       -3.7164400E-19
   89.99500       -3.7601508E-19
   90.15650       -3.8052735E-19
   90.31800       -3.8271021E-19
   90.47950       -3.8162192E-19
   90.64100       -3.7814301E-19
   90.80250       -3.7439298E-19
   90.96400       -3.7266146E-19
   91.12550       -3.7439151E-19
   91.28700       -3.7964946E-19
   91.44850       -3.8721418E-19
   91.61000       -3.9515074E-19
   91.77150       -4.0160102E-19
   91.93300       -4.0549265E-19
   92.09450       -4.0690950E-19
   92.25600       -4.0697413E-19
   92.41750       -4.0728207E-19
   92.57900       -4.0910476E-19
   92.74050       -4.1275511E-19
   92.90200       -4.1740787E-19
   93.06350       -4.2147049E-19
   93.22500       -4.2328292E-19
   93.38650       -4.2180599E-19
   93.54800       -4.1701993E-19
   93.70950       -4.0992447E-19
   93.87100       -4.0224023E-19
   94.03250       -3.9591945E-19
   94.19400       -3.9258062E-19
   94.35550       -3.9297689E-19
   94.51700       -3.9666037E-19
   94.67850       -4.0202343E-19
   94.84000       -4.0682467E-19
   95.00150       -4.0908920E-19
   95.16300       -4.0801671E-19
   95.32450       -4.0446027E-19
   95.48600       -4.0065708E-19
   95.64750       -3.9924906E-19
   95.80900       -4.0198512E-19
   95.97050       -4.0872845E-19
   96.13200       -4.1729421E-19
   96.29350       -4.2428785E-19
   96.45500       -4.2660961E-19
   96.61650       -4.2295037E-19
   96.77800       -4.1451615E-19
   96.93950       -4.0456783E-19
   97.10100       -3.9689858E-19
   97.26250       -3.9398925E-19
   97.42400       -3.9575652E-19
   97.58550       -3.9959958E-19
   97.74700       -4.0176801E-19
   97.90850       -3.9936626E-19
   98.07000       -3.9194697E-19
   98.23150       -3.8181693E-19
   98.39300       -3.7289087E-19
   98.55450       -3.6868836E-19
   98.71600       -3.7051025E-19
   98.87750       -3.7675487E-19
   99.03900       -3.8370060E-19
   99.20050       -3.8737558E-19
   99.36200       -3.8557755E-19
   99.52350       -3.7907327E-19
   99.68500       -3.7134986E-19
   99.84650       -3.6700391E-19
   100.0080       -3.6949594E-19
   100.1695       -3.7931225E-19
   100.3310       -3.9347552E-19
   100.4925       -4.0672667E-19
   100.6540       -4.1392862E-19
   100.8155       -4.1257143E-19
   100.9770       -4.0416725E-19
   101.1385       -3.9377067E-19
   101.3000       -3.8774272E-19
   101.4615       -3.9075997E-19
   101.6230       -4.0345892E-19
   101.7845       -4.2190014E-19
   101.9460       -4.3918617E-19
   102.1075       -4.4855482E-19
   102.2690       -4.4654348E-19
   102.4305       -4.3470900E-19
   102.5920       -4.1901803E-19
   102.7535       -4.0710415E-19
   102.9150       -4.0463171E-19
   103.0765       -4.1250127E-19
   103.2380       -4.2630950E-19
   103.3995       -4.3842180E-19
   103.5610       -4.4170488E-19
   103.7225       -4.3308985E-19
   103.8840       -4.1517668E-19
   104.0455       -3.9501816E-19
   104.2070       -3.8070491E-19
   104.3685       -3.7744306E-19
   104.5300       -3.8510660E-19
   104.6915       -3.9844194E-19
   104.8530       -4.0977253E-19
   105.0145       -4.1280748E-19
   105.1760       -4.0567887E-19
   105.3375       -3.9176499E-19
   105.4990       -3.7796542E-19
   105.6605       -3.7130414E-19
   105.8220       -3.7551898E-19
   105.9835       -3.8928580E-19
   106.1450       -4.0690583E-19
   106.3065       -4.2107844E-19
   106.4680       -4.2637250E-19
   106.6295       -4.2168073E-19
   106.7910       -4.1049469E-19
   106.9525       -3.9895598E-19
   107.1140       -3.9273987E-19
   107.2755       -3.9436518E-19
   107.4370       -4.0218224E-19
   107.5985       -4.1141880E-19
   107.7600       -4.1665209E-19
   107.9215       -4.1444285E-19
   108.0830       -4.0490380E-19
   108.2445       -3.9154328E-19
   108.4060       -3.7956583E-19
   108.5675       -3.7349596E-19
   108.7290       -3.7524818E-19
   108.8905       -3.8348385E-19
   109.0520       -3.9446555E-19
   109.2135       -4.0390780E-19
   109.3750       -4.0891234E-19
   109.5365       -4.0909181E-19
   109.6980       -4.0643631E-19
   109.8595       -4.0410707E-19
   110.0210       -4.0479197E-19
   110.1825       -4.0941573E-19
   110.3440       -4.1675376E-19
   110.5055       -4.2404468E-19
   110.6670       -4.2824205E-19
   110.8285       -4.2733363E-19
   110.9900       -4.2119455E-19
   111.1515       -4.1166884E-19
   111.3130       -4.0189255E-19
   111.4745       -3.9514040E-19
   111.6360       -3.9360526E-19
   111.7975       -3.9757904E-19
   111.9590       -4.0533750E-19
   112.1205       -4.1379501E-19
   112.2820       -4.1968996E-19
   112.4435       -4.2083967E-19
   112.6050       -4.1696921E-19
   112.7665       -4.0978463E-19
   112.9280       -4.0226716E-19
   113.0895       -3.9746248E-19
   113.2510       -3.9721278E-19
   113.4125       -4.0132363E-19
   113.5740       -4.0751172E-19
   113.7355       -4.1226581E-19
   113.8970       -4.1235894E-19
   114.0585       -4.0644181E-19
   114.2200       -3.9599418E-19
   114.3815       -3.8506012E-19
   114.5430       -3.7870950E-19
   114.7045       -3.8079963E-19
   114.8660       -3.9202382E-19
   115.0275       -4.0924396E-19
   115.1890       -4.2654305E-19
   115.3505       -4.3768432E-19
   115.5120       -4.3891232E-19
   115.6735       -4.3080466E-19
   115.8350       -4.1819936E-19
   115.9965       -4.0806689E-19
   116.1580       -4.0616520E-19
   116.3195       -4.1403450E-19
   116.4810       -4.2787776E-19
   116.6425       -4.4010625E-19
   116.8040       -4.4299916E-19
   116.9655       -4.3277803E-19
   117.1270       -4.1194949E-19
   117.2885       -3.8851200E-19
   117.4500       -3.7219780E-19
   117.6115       -3.6953288E-19
   117.7730       -3.8029515E-19
   117.9345       -3.9734368E-19
   118.0960       -4.1010284E-19
   118.2575       -4.1002893E-19
   118.4190       -3.9526120E-19
   118.5805       -3.7196784E-19
   118.7420       -3.5154106E-19