  -27.90000        5.4969080E-18
  -27.73850        5.4984064E-18
  -27.57700        5.5004219E-18
  -27.41550        5.5018856E-18
  -27.25400        5.5025394E-18
  -27.09250        5.5030444E-18
  -26.93100        5.5042393E-18
  -26.76950        5.5062651E-18
  -26.60800        5.5083975E-18
  -26.44650        5.5097351E-18
  -26.28500        5.5100742E-18
  -26.12350        5.5101226E-18
  -25.96200        5.5108481E-18
  -25.80050        5.5125789E-18
  -25.63900        5.5146899E-18
  -25.47750        5.5161850E-18
  -25.31600        5.5166280E-18
  -25.15450        5.5165457E-18
  -24.99300        5.5169522E-18
  -24.83150        5.5184048E-18
  -24.67000        5.5204802E-18
  -24.50850        5.5221457E-18
  -24.34700        5.5226891E-18
  -24.18550        5.5223719E-18
  -24.02400        5.5222011E-18
  -23.86250        5.5230382E-18
  -23.70100        5.5248311E-18
  -23.53950        5.5266778E-18
  -23.37800        5.5276357E-18
  -23.21650        5.5275612E-18
  -23.05500        5.5272151E-18
  -22.89350        5.5275559E-18
  -22.73200        5.5288831E-18
  -22.57050        5.5306065E-18
  -22.40900        5.5318311E-18
  -22.24750        5.5322067E-18
  -22.08600        5.5322145E-18
  -21.92450        5.5326554E-18
  -21.76300        5.5338246E-18
  -21.60150        5.5351978E-18
  -21.44000        5.5359563E-18
  -21.27850        5.5358392E-18
  -21.11700        5.5355080E-18
  -20.95550        5.5360076E-18
  -20.79400        5.5378158E-18
  -20.63250        5.5403350E-18
  -20.47100        5.5423388E-18
  -20.30950        5.5429737E-18
  -20.14800        5.5424319E-18
  -19.98650        5.5417052E-18
  -19.82500        5.5416796E-18
  -19.66350        5.5424414E-18
  -19.50200        5.5434038E-18
  -19.34050        5.5440664E-18
  -19.17900        5.5446185E-18
  -19.01750        5.5457716E-18
  -18.85600        5.5479641E-18
  -18.69450        5.5507384E-18
  -18.53300        5.5529230E-18
  -18.37150        5.5535401E-18
  -18.21000        5.5526352E-18
  -18.04850        5.5512840E-18
  -17.88700        5.5507380E-18
  -17.72550        5.5514395E-18
  -17.56400        5.5527439E-18
  -17.40250        5.5535355E-18
  -17.24100        5.5531749E-18
  -17.07950        5.5519560E-18
  -16.91800        5.5507632E-18
  -16.75650        5.5502843E-18
  -16.59500        5.5505333E-18
  -16.43350        5.5510540E-18
  -16.27200        5.5515276E-18
  -16.11050        5.5521376E-18
  -15.94900        5.5533267E-18
  -15.78750        5.5551870E-18
  -15.62600        5.5571259E-18
  -15.46450        5.5581888E-18
  -15.30300        5.5578534E-18
  -15.14150        5.5565709E-18
  -14.98000        5.5555410E-18
  -14.81850        5.5558330E-18
  -14.65700        5.5575573E-18
  -14.49550        5.5597857E-18
  -14.33400        5.5612817E-18
  -14.17250        5.5614194E-18
  -14.01100        5.5605364E-18
  -13.84950        5.5594780E-18
  -13.68800        5.5588138E-18
  -13.52650        5.5584544E-18
  -13.36500        5.5579659E-18
  -13.20350        5.5572049E-18
  -13.04200        5.5565882E-18
  -12.88050        5.5567012E-18
  -12.71900        5.5576355E-18
  -12.55750        5.5587443E-18
  -12.39600        5.5591405E-18
  -12.23450        5.5585367E-18
  -12.07300        5.5576185E-18
  -11.91150        5.5575594E-18
  -11.75000        5.5590106E-18
  -11.58850        5.5614794E-18
  -11.42700        5.5636321E-18
  -11.26550        5.5643129E-18
  -11.10400        5.5634112E-18
  -10.94250        5.5618595E-18
  -10.78100        5.5608110E-18
  -10.61950        5.5607543E-18
  -10.45800        5.5613052E-18
  -10.29650        5.5617792E-18
  -10.13500        5.5619368E-18
  -9.973500        5.5621804E-18
  -9.812000        5.5630593E-18
  -9.650500        5.5646086E-18
  -9.489000        5.5662022E-18
  -9.327500        5.5670951E-18
  -9.166000        5.5671468E-18
  -9.004500        5.5670223E-18
  -8.843000        5.5676311E-18
  -8.681500        5.5692946E-18
  -8.520000        5.5714039E-18
  -8.358500        5.5729362E-18
  -8.197000        5.5733924E-18
  -8.035500        5.5733047E-18
  -7.874000        5.5738308E-18
  -7.712500        5.5757594E-18
  -7.551000        5.5787906E-18
  -7.389500        5.5817511E-18
  -7.228000        5.5835382E-18
  -7.066500        5.5839654E-18
  -6.905000        5.5837702E-18
  -6.743500        5.5838170E-18
  -6.582000        5.5842988E-18
  -6.420500        5.5846681E-18
  -6.259000        5.5843414E-18
  -6.097500        5.5834170E-18
  -5.936000        5.5826800E-18
  -5.774500        5.5828306E-18
  -5.613000        5.5837214E-18
  -5.451500        5.5843972E-18
  -5.290000        5.5839588E-18
  -5.128500        5.5824753E-18
  -4.967000        5.5810331E-18
  -4.805500        5.5808118E-18
  -4.644000        5.5820166E-18
  -4.482500        5.5836594E-18
  -4.321000        5.5844249E-18
  -4.159500        5.5838505E-18
  -3.998000        5.5827491E-18
  -3.836500        5.5824898E-18
  -3.675000        5.5838099E-18
  -3.513500        5.5862100E-18
  -3.352000        5.5884235E-18
  -3.190500        5.5894782E-18
  -3.029000        5.5893669E-18
  -2.867500        5.5888111E-18
  -2.706000        5.5884521E-18
  -2.544500        5.5883205E-18
  -2.383000        5.5880356E-18
  -2.221500        5.5874454E-18
  -2.060000        5.5869847E-18
  -1.898500        5.5873221E-18
  -1.737000        5.5886444E-18
  -1.575500        5.5903161E-18
  -1.414000        5.5913352E-18
  -1.252500        5.5912335E-18
  -1.091000        5.5906110E-18
 -0.9295000        5.5907628E-18
 -0.7680000        5.5926467E-18
 -0.6065000        5.5960328E-18
 -0.4450000        5.5995599E-18
 -0.2835000        5.6016464E-18
 -0.1220000        5.6015414E-18
  3.9500002E-02    5.5997203E-18
  0.2010000        5.5974183E-18
  0.3625000        5.5957598E-18
  0.5240000        5.5952188E-18
  0.6855000        5.5956874E-18
  0.8470000        5.5968889E-18
   1.008500        5.5986202E-18
   1.170000        5.6006290E-18
   1.331500        5.6023619E-18
   1.493000        5.6030547E-18
   1.654500        5.6022515E-18
   1.816000        5.6003494E-18
   1.977500        5.5985995E-18
   2.139000        5.5983857E-18
   2.300500        5.6002390E-18
   2.462000        5.6033690E-18
   2.623500        5.6061306E-18
   2.785000        5.6071373E-18
   2.946500        5.6061781E-18
   3.108000        5.6042657E-18
   3.269500        5.6028467E-18
   3.431000        5.6028111E-18
   3.592500        5.6040357E-18
   3.754000        5.6056975E-18
   3.915500        5.6069697E-18
   4.077000        5.6074967E-18
   4.238500        5.6073904E-18
   4.400000        5.6069127E-18
   4.561500        5.6062795E-18
   4.723000        5.6057269E-18
   4.884500        5.6056516E-18
   5.046000        5.6065313E-18
   5.207500        5.6085666E-18
   5.369000        5.6113331E-18
   5.530500        5.6138444E-18
   5.692000        5.6150997E-18
   5.853500        5.6147581E-18
   6.015000        5.6134275E-18
   6.176500        5.6122898E-18
   6.338000        5.6123034E-18
   6.499500        5.6135603E-18
   6.661000        5.6152709E-18
   6.822500        5.6163814E-18
   6.984000        5.6163235E-18
   7.145500        5.6153503E-18
   7.307000        5.6142423E-18
   7.468500        5.6136885E-18
   7.630000        5.6138560E-18
   7.791500        5.6144595E-18
   7.953000        5.6151477E-18
   8.114500        5.6157714E-18
   8.276000        5.6162673E-18
   8.437500        5.6163458E-18
   8.599000        5.6154252E-18
   8.760500        5.6130648E-18
   8.922000        5.6095807E-18
   9.083500        5.6062468E-18
   9.245000        5.6046880E-18
   9.406500        5.6058105E-18
   9.568000        5.6090869E-18
   9.729500        5.6128407E-18
   9.891000        5.6153586E-18
   10.05250        5.6159947E-18
   10.21400        5.6154227E-18
   10.37550        5.6149177E-18
   10.53700        5.6153586E-18
   10.69850        5.6167553E-18
   10.86000        5.6185461E-18
   11.02150        5.6202079E-18
   11.18300        5.6215215E-18
   11.34450        5.6223334E-18
   11.50600        5.6222631E-18
   11.66750        5.6208503E-18
   11.82900        5.6181681E-18
   11.99050        5.6152569E-18
   12.15200        5.6138018E-18
   12.31350        5.6150803E-18
   12.47500        5.6189490E-18
   12.63650        5.6237396E-18
   12.79800        5.6272683E-18
   12.95950        5.6282473E-18
   13.12100        5.6270587E-18
   13.28250        5.6253468E-18
   13.44400        5.6248079E-18
   13.60550        5.6261330E-18
   13.76700        5.6288044E-18
   13.92850        5.6316996E-18
   14.09000        5.6338647E-18
   14.25150        5.6348284E-18
   14.41300        5.6344301E-18
   14.57450        5.6326103E-18
   14.73600        5.6295290E-18
   14.89750        5.6259080E-18
   15.05900        5.6230642E-18
   15.22050        5.6222970E-18
   15.38200        5.6239493E-18
   15.54350        5.6269247E-18
   15.70500        5.6292585E-18
   15.86650        5.6294715E-18
   16.02800        5.6277010E-18
   16.18950        5.6256727E-18
   16.35100        5.6254407E-18
   16.51250        5.6278672E-18
   16.67400        5.6320350E-18
   16.83550        5.6359827E-18
   16.99700        5.6381123E-18
   17.15850        5.6381239E-18
   17.32000        5.6368405E-18
   17.48150        5.6353106E-18
   17.64300        5.6340789E-18
   17.80450        5.6331765E-18
   17.96600        5.6325991E-18
   18.12750        5.6325598E-18
   18.28900        5.6331852E-18
   18.45050        5.6340301E-18
   18.61200        5.6341100E-18
   18.77350        5.6326612E-18
   18.93500        5.6300216E-18
   19.09650        5.6277572E-18
   19.25800        5.6276538E-18
   19.41950        5.6302996E-18
   19.58100        5.6344156E-18
   19.74250        5.6375849E-18
   19.90400        5.6379013E-18
   20.06550        5.6352693E-18
   20.22700        5.6314158E-18
   20.38850        5.6286667E-18
   20.55000        5.6285079E-18
   20.71150        5.6309518E-18
   20.87300        5.6349524E-18
   21.03450        5.6392546E-18
   21.19600        5.6429083E-18
   21.35750        5.6452562E-18
   21.51900        5.6457951E-18
   21.68050        5.6443596E-18
   21.84200        5.6415695E-18
   22.00350        5.6389469E-18
   22.16500        5.6382529E-18
   22.32650        5.6402787E-18
   22.48800        5.6440295E-18
   22.64950        5.6471046E-18
   22.81100        5.6472017E-18
   22.97250        5.6437135E-18
   23.13400        5.6382219E-18
   23.29550        5.6334755E-18
   23.45700        5.6316321E-18
   23.61850        5.6330404E-18
   23.78000        5.6363814E-18
   23.94150        5.6398448E-18
   24.10300        5.6423119E-18
   24.26450        5.6437065E-18
   24.42600        5.6445209E-18
   24.58750        5.6451900E-18
   24.74900        5.6459262E-18
   24.91050        5.6469656E-18
   25.07200        5.6487109E-18
   25.23350        5.6513964E-18
   25.39500        5.6545450E-18
   25.55650        5.6568682E-18
   25.71800        5.6569761E-18
   25.87950        5.6544483E-18
   26.04100        5.6503802E-18
   26.20250        5.6467931E-18
   26.36400        5.6452723E-18
   26.52550        5.6458948E-18
   26.68700        5.6472886E-18
   26.84850        5.6477791E-18
   27.01000        5.6466562E-18
   27.17150        5.6445779E-18
   27.33300        5.6429000E-18
   27.49450        5.6426055E-18
   27.65600        5.6437421E-18
   27.81750        5.6456822E-18
   27.97900        5.6477750E-18
   28.14050        5.6496907E-18
   28.30200        5.6512454E-18
   28.46350        5.6520606E-18
   28.62500        5.6516267E-18
   28.78650        5.6498388E-18
   28.94800        5.6474888E-18
   29.10950        5.6460879E-18
   29.27100        5.6469445E-18
   29.43250        5.6501519E-18
   29.59400        5.6543436E-18
   29.75550        5.6574985E-18
   29.91700        5.6582467E-18
   30.07850        5.6566866E-18
   30.24000        5.6541439E-18
   30.40150        5.6521384E-18
   30.56300        5.6514191E-18
   30.72450        5.6517620E-18
   30.88600        5.6525122E-18
   31.04750        5.6532579E-18
   31.20900        5.6540156E-18
   31.37050        5.6548867E-18
   31.53200        5.6556758E-18
   31.69350        5.6559417E-18
   31.85500        5.6554802E-18
   32.01650        5.6547167E-18
   32.17800        5.6545297E-18
   32.33950        5.6555451E-18
   32.50100        5.6575072E-18
   32.66250        5.6593237E-18
   32.82400        5.6598464E-18
   32.98550        5.6587384E-18
   33.14700        5.6567197E-18
   33.30850        5.6549793E-18
   33.47000        5.6542696E-18
   33.63150        5.6544747E-18
   33.79300        5.6549872E-18
   33.95450        5.6554678E-18
   34.11600        5.6562275E-18
   34.27750        5.6578579E-18
   34.43900        5.6604970E-18
   34.60050        5.6634678E-18
   34.76200        5.6657095E-18
   34.92350        5.6666182E-18
   35.08500        5.6665483E-18
   35.24650        5.6664689E-18
   35.40800        5.6671132E-18
   35.56950        5.6683685E-18
   35.73100        5.6694624E-18
   35.89250        5.6697201E-18
   36.05400        5.6691663E-18
   36.21550        5.6684284E-18
   36.37700        5.6680934E-18
   36.53850        5.6681683E-18
   36.70000        5.6681443E-18
   36.86150        5.6675541E-18
   37.02300        5.6664283E-18
   37.18450        5.6652091E-18
   37.34600        5.6642379E-18
   37.50750        5.6633905E-18
   37.66900        5.6622473E-18
   37.83050        5.6606674E-18
   37.99200        5.6591669E-18
   38.15350        5.6586623E-18
   38.31500        5.6597339E-18
   38.47650        5.6620360E-18
   38.63800        5.6644042E-18
   38.79950        5.6656160E-18
   38.96100        5.6652177E-18
   39.12250        5.6637880E-18
   39.28400        5.6624624E-18
   39.44550        5.6621369E-18
   39.60700        5.6629686E-18
   39.76850        5.6644687E-18
   39.93000        5.6659783E-18
   40.09150        5.6670644E-18
   40.25300        5.6675736E-18
   40.41450        5.6674528E-18
   40.57600        5.6666512E-18
   40.73750        5.6652744E-18
   40.89900        5.6637867E-18
   41.06050        5.6629571E-18
   41.22200        5.6634410E-18
   41.38350        5.6652711E-18
   41.54500        5.6677088E-18
   41.70650        5.6696667E-18
   41.86800        5.6704501E-18
   42.02950        5.6702367E-18
   42.19100        5.6699141E-18
   42.35250        5.6704149E-18
   42.51400        5.6720486E-18
   42.67550        5.6743494E-18
   42.83700        5.6764678E-18
   42.99850        5.6777644E-18
   43.16000        5.6781222E-18
   43.32150        5.6778066E-18
   43.48300        5.6770932E-18
   43.64450        5.6760149E-18
   43.80600        5.6744214E-18
   43.96750        5.6722388E-18
   44.12900        5.6696580E-18
   44.29050        5.6670959E-18
   44.45200        5.6649969E-18
   44.61350        5.6636556E-18
   44.77500        5.6631870E-18
   44.93650        5.6636114E-18
   45.09800        5.6648893E-18
   45.25950        5.6668502E-18
   45.42100        5.6690803E-18
   45.58250        5.6709642E-18
   45.74400        5.6719361E-18
   45.90550        5.6718550E-18
   46.06700        5.6712098E-18
   46.22850        5.6709460E-18
   46.39000        5.6719344E-18
   46.55150        5.6744106E-18
   46.71300        5.6777661E-18
   46.87450        5.6808688E-18
   47.03600        5.6827139E-18
   47.19750        5.6829554E-18
   47.35900        5.6819748E-18
   47.52050        5.6805007E-18
   47.68200        5.6791231E-18
   47.84350        5.6780796E-18
   48.00500        5.6773727E-18
   48.16650        5.6769873E-18
   48.32800        5.6769252E-18
   48.48950        5.6770311E-18
   48.65100        5.6768810E-18
   48.81250        5.6759901E-18
   48.97400        5.6742630E-18
   49.13550        5.6722732E-18
   49.29700        5.6710212E-18
   49.45850        5.6712487E-18
   49.62000        5.6728584E-18
   49.78150        5.6749301E-18
   49.94300        5.6763843E-18
   50.10450        5.6767395E-18
   50.26600        5.6763417E-18
   50.42750        5.6759153E-18
   50.58900        5.6758764E-18
   50.75050        5.6760418E-18
   50.91200        5.6759479E-18
   51.07350        5.6754061E-18
   51.23500        5.6747307E-18
   51.39650        5.6744391E-18
   51.55800        5.6747601E-18
   51.71950        5.6754917E-18
   51.88100        5.6763247E-18
   52.04250        5.6772789E-18
   52.20400        5.6787297E-18
   52.36550        5.6809590E-18
   52.52700        5.6836275E-18
   52.68850        5.6857773E-18
   52.85000        5.6864560E-18
   53.01150        5.6854816E-18
   53.17300        5.6836829E-18
   53.33450        5.6823577E-18
   53.49600        5.6823487E-18
   53.65750        5.6834782E-18
   53.81900        5.6847338E-18
   53.98050        5.6850006E-18
   54.14200        5.6837205E-18
   54.30350        5.6810156E-18
   54.46500        5.6773574E-18
   54.62650        5.6732261E-18
   54.78800        5.6690881E-18
   54.94950        5.6656160E-18
   55.11100        5.6637222E-18
   55.27250        5.6641672E-18
   55.43400        5.6669635E-18
   55.59550        5.6711180E-18
   55.75700        5.6750885E-18
   55.91850        5.6777189E-18
   56.08000        5.6789766E-18
   56.24150        5.6798977E-18
   56.40300        5.6817969E-18
   56.56450        5.6853571E-18
   56.72600        5.6902685E-18
   56.88750        5.6955753E-18
   57.04900        5.7002993E-18
   57.21050        5.7037974E-18
   57.37200        5.7056805E-18
   57.53350        5.7056098E-18
   57.69500        5.7033789E-18
   57.85650        5.6992661E-18
   58.01800        5.6942642E-18
   58.17950        5.6897730E-18
   58.34100        5.6868303E-18
   58.50250        5.6854489E-18
   58.66400        5.6846342E-18
   58.82550        5.6831080E-18
   58.98700        5.6802178E-18
   59.14850        5.6763293E-18
   59.31000        5.6724866E-18
   59.47150        5.6696949E-18
   59.63300        5.6684260E-18
   59.79450        5.6686683E-18
   59.95600        5.6702681E-18
   60.11750        5.6731504E-18
   60.27900        5.6771730E-18
   60.44050        5.6818337E-18
   60.60200        5.6862120E-18
   60.76350        5.6892945E-18
   60.92500        5.6904761E-18
   61.08650        5.6898231E-18
   61.24800        5.6879119E-18
   61.40950        5.6854171E-18
   61.57100        5.6828086E-18
   61.73250        5.6803891E-18
   61.89400        5.6785308E-18
   62.05550        5.6777818E-18
   62.21700        5.6786524E-18
   62.37850        5.6812262E-18
   62.54000        5.6849332E-18
   62.70150        5.6887618E-18
   62.86300        5.6917975E-18
   63.02450        5.6937236E-18
   63.18600        5.6949412E-18
   63.34750        5.6962159E-18
   63.50900        5.6981279E-18
   63.67050        5.7006881E-18
   63.83200        5.7033400E-18
   63.99350        5.7052793E-18
   64.15500        5.7058162E-18
   64.31650        5.7045750E-18
   64.47800        5.7014855E-18
   64.63950        5.6967317E-18
   64.80100        5.6907466E-18
   64.96250        5.6842747E-18
   65.12400        5.6783244E-18
   65.28550        5.6739093E-18
   65.44700        5.6716482E-18
   65.60850        5.6715113E-18
   65.77000        5.6729142E-18
   65.93150        5.6751538E-18
   66.09300        5.6778451E-18
   66.25450        5.6810111E-18
   66.41600        5.6847404E-18
   66.57750        5.6887564E-18
   66.73900        5.6923344E-18
   66.90050        5.6947229E-18
   67.06200        5.6957337E-18
   67.22350        5.6959777E-18
   67.38500        5.6964405E-18
   67.54650        5.6977206E-18
   67.70800        5.6995102E-18
   67.86950        5.7007898E-18
   68.03100        5.7005611E-18
   68.19250        5.6985378E-18
   68.35400        5.6952680E-18
   68.51550        5.6916714E-18
   68.67700        5.6884644E-18
   68.83850        5.6859266E-18
   69.00000        5.6840965E-18
   69.16150        5.6830406E-18
   69.32300        5.6828429E-18
   69.48450        5.6833466E-18
   69.64600        5.6840105E-18
   69.80750        5.6841804E-18
   69.96900        5.6836726E-18
   70.13050        5.6831341E-18
   70.29200        5.6837822E-18
   70.45350        5.6866008E-18
   70.61500        5.6916114E-18
   70.77650        5.6978277E-18
   70.93800        5.7039132E-18
   71.09950        5.7089901E-18
   71.26100        5.7128944E-18
   71.42250        5.7157316E-18
   71.58400        5.7172114E-18
   71.74550        5.7165129E-18
   71.90700        5.7128733E-18
   72.06850        5.7064068E-18
   72.23000        5.6983563E-18
   72.39150        5.6904658E-18
   72.55300        5.6839741E-18
   72.71450        5.6790834E-18
   72.87600        5.6753251E-18
   73.03750        5.6724167E-18
   73.19900        5.6707520E-18
   73.36050        5.6710473E-18
   73.52200        5.6735541E-18
   73.68350        5.6776784E-18
   73.84500        5.6824256E-18
   74.00650        5.6872398E-18
   74.16800        5.6923472E-18
   74.32950        5.6981664E-18
   74.49100        5.7043421E-18
   74.65250        5.7093946E-18
   74.81400        5.7114857E-18
   74.97550        5.7097366E-18
   75.13700        5.7049385E-18
   75.29850        5.6990151E-18
   75.46000        5.6937050E-18
   75.62150        5.6895981E-18
   75.78300        5.6862860E-18
   75.94450        5.6833040E-18
   76.10600        5.6808701E-18
   76.26750        5.6796984E-18
   76.42900        5.6801938E-18
   76.59050        5.6819367E-18
   76.75200        5.6840324E-18
   76.91350        5.6859854E-18
   77.07500        5.6881914E-18
   77.23650        5.6914865E-18
   77.39800        5.6961613E-18
   77.55950        5.7013870E-18
   77.72100        5.7056557E-18
   77.88250        5.7078601E-18
   78.04400        5.7080314E-18
   78.20550        5.7071070E-18
   78.36700        5.7059791E-18
   78.52850        5.7047714E-18
   78.69000        5.7030038E-18
   78.85150        5.7004159E-18
   79.01300        5.6975861E-18
   79.17450        5.6956563E-18
   79.33600        5.6953424E-18
   79.49750        5.6961464E-18
   79.65900        5.6965373E-18
   79.82050        5.6950281E-18
   79.98200        5.6913062E-18
   80.14350        5.6864829E-18
   80.30500        5.6823242E-18
   80.46650        5.6801372E-18
   80.62800        5.6801819E-18
   80.78950        5.6819098E-18
   80.95100        5.6846126E-18
   81.11250        5.6878023E-18
   81.27400        5.6910886E-18
   81.43550        5.6939354E-18
   81.59700        5.6957953E-18
   81.75850        5.6966262E-18
   81.92000        5.6972383E-18
   82.08150        5.6989088E-18
   82.24300        5.7023412E-18
   82.40450        5.7067860E-18
   82.56600        5.7101593E-18
   82.72750        5.7102499E-18
   82.88900        5.7061731E-18
   83.05050        5.6989820E-18
   83.21200        5.6910204E-18
   83.37350        5.6845622E-18
   83.53500        5.6807915E-18
   83.69650        5.6796839E-18
   83.85800        5.6805793E-18
   84.01950        5.6827622E-18
   84.18100        5.6856053E-18
   84.34250        5.6884607E-18
   84.50400        5.6907247E-18
   84.66550        5.6921979E-18
   84.82700        5.6933878E-18
   84.98850        5.6952953E-18
   85.15000        5.6986664E-18
   85.31150        5.7032556E-18
   85.47300        5.7077518E-18
   85.63450        5.7104988E-18
   85.79600        5.7105034E-18
   85.95750        5.7079635E-18
   86.11900        5.7040080E-18
   86.28050        5.6999171E-18
   86.44200        5.6964959E-18
   86.60350        5.6939643E-18
   86.76500        5.6922835E-18
   86.92650        5.6914551E-18
   87.08800        5.6915246E-18
   87.24950        5.6923517E-18
   87.41100        5.6934647E-18
   87.57250        5.6942398E-18
   87.73400        5.6942762E-18
   87.89550        5.6936657E-18
   88.05700        5.6929072E-18
   88.21850        5.6925114E-18
   88.38000        5.6926152E-18
   88.54150        5.6929192E-18
   88.70300        5.6929452E-18
   88.86450        5.6924200E-18
   89.02600        5.6914559E-18
   89.18750        5.6904248E-18
   89.34900        5.6896576E-18
   89.51050        5.6892829E-18
   89.67200        5.6892966E-18
   89.83350        5.6897449E-18
   89.99500        5.6907863E-18
   90.15650        5.6925019E-18
   90.31800        5.6946749E-18
   90.47950        5.6967569E-18
   90.64100        5.6981672E-18
   90.80250        5.6987297E-18
   90.96400        5.6988604E-18
   91.12550        5.6993236E-18
   91.28700        5.7007158E-18
   91.44850        5.7030588E-18
   91.61000        5.7058298E-18
   91.77150        5.7083229E-18
   91.93300        5.7100559E-18
   92.09450        5.7108967E-18
   92.25600        5.7109244E-18
   92.41750        5.7102751E-18
   92.57900        5.7091328E-18
   92.74050        5.7078428E-18
   92.90200        5.7069213E-18
   93.06350        5.7068377E-18
   93.22500        5.7076728E-18
   93.38650        5.7089599E-18
   93.54800        5.7098495E-18
   93.70950        5.7095211E-18
   93.87100        5.7075715E-18
   94.03250        5.7041345E-18
   94.19400        5.6997170E-18
   94.35550        5.6949433E-18
   94.51700        5.6903764E-18
   94.67850        5.6864506E-18
   94.84000        5.6834517E-18
   95.00150        5.6814739E-18
   95.16300        5.6803911E-18
   95.32450        5.6799019E-18
   95.48600        5.6797025E-18
   95.64750        5.6796789E-18
   95.80900        5.6800210E-18
   95.97050        5.6811323E-18
   96.13200        5.6833603E-18
   96.29350        5.6867100E-18
   96.45500        5.6907189E-18
   96.61650        5.6946149E-18
   96.77800        5.6976647E-18
   96.93950        5.6994986E-18
   97.10100        5.7002162E-18
   97.26250        5.7002153E-18
   97.42400        5.6998948E-18
   97.58550        5.6994709E-18
   97.74700        5.6989936E-18
   97.90850        5.6984869E-18
   98.07000        5.6980510E-18
   98.23150        5.6978103E-18
   98.39300        5.6978293E-18
   98.55450        5.6981180E-18
   98.71600        5.6987339E-18
   98.87750        5.6998869E-18
   99.03900        5.7018337E-18
   99.20050        5.7046420E-18
   99.36200        5.7079850E-18
   99.52350        5.7112288E-18
   99.68500        5.7137327E-18
   99.84650        5.7151550E-18
   100.0080        5.7154826E-18
   100.1695        5.7148085E-18
   100.3310        5.7130846E-18
   100.4925        5.7101262E-18
   100.6540        5.7058774E-18
   100.8155        5.7006843E-18
   100.9770        5.6953226E-18
   101.1385        5.6907081E-18
   101.3000        5.6875380E-18
   101.4615        5.6860788E-18
   101.6230        5.6862021E-18
   101.7845        5.6875562E-18
   101.9460        5.6897060E-18
   102.1075        5.6921876E-18
   102.2690        5.6945719E-18
   102.4305        5.6965675E-18
   102.5920        5.6981019E-18
   102.7535        5.6993274E-18
   102.9150        5.7004788E-18
   103.0765        5.7016794E-18
   103.2380        5.7028449E-18
   103.3995        5.7037511E-18
   103.5610        5.7042019E-18
   103.7225        5.7041701E-18
   103.8840        5.7038127E-18
   104.0455        5.7033388E-18
   104.2070        5.7028524E-18
   104.3685        5.7022779E-18
   104.5300        5.7014329E-18
   104.6915        5.7002116E-18
   104.8530        5.6987136E-18
   105.0145        5.6972193E-18
   105.1760        5.6959946E-18
   105.3375        5.6950938E-18
   105.4990        5.6943093E-18
   105.6605        5.6933336E-18
   105.8220        5.6920043E-18
   105.9835        5.6904298E-18
   106.1450        5.6889078E-18
   106.3065        5.6877563E-18
   106.4680        5.6872162E-18
   106.6295        5.6875016E-18
   106.7910        5.6888627E-18
   106.9525        5.6914948E-18
   107.1140        5.6953006E-18
   107.2755        5.6997054E-18
   107.4370        5.7037747E-18
   107.5985        5.7066185E-18
   107.7600        5.7077940E-18
   107.9215        5.7074399E-18
   108.0830        5.7060490E-18
   108.2445        5.7041006E-18
   108.4060        5.7018767E-18
   108.5675        5.6995412E-18
   108.7290        5.6973194E-18
   108.8905        5.6955389E-18
   109.0520        5.6944577E-18
   109.2135        5.6940686E-18
   109.3750        5.6940897E-18
   109.5365        5.6942084E-18
   109.6980        5.6943502E-18
   109.8595        5.6947663E-18
   110.0210        5.6958429E-18
   110.1825        5.6978016E-18
   110.3440        5.7005280E-18
   110.5055        5.7036378E-18
   110.6670        5.7066719E-18
   110.8285        5.7092283E-18
   110.9900        5.7109488E-18
   111.1515        5.7114513E-18
   111.3130        5.7103801E-18
   111.4745        5.7076430E-18
   111.6360        5.7036763E-18
   111.7975        5.6994481E-18
   111.9590        5.6960952E-18
   112.1205        5.6943461E-18
   112.2820        5.6941335E-18
   112.4435        5.6946989E-18
   112.6050        5.6951323E-18
   112.7665        5.6949991E-18
   112.9280        5.6945620E-18
   113.0895        5.6944987E-18
   113.2510        5.6953441E-18
   113.4125        5.6971080E-18
   113.5740        5.6993030E-18
   113.7355        5.7012667E-18
   113.8970        5.7024682E-18
   114.0585        5.7026150E-18
   114.2200        5.7016240E-18
   114.3815        5.6996508E-18
   114.5430        5.6972300E-18
   114.7045        5.6952994E-18
   114.8660        5.6949032E-18
   115.0275        5.6966039E-18
   115.1890        5.7000114E-18
   115.3505        5.7038471E-18
   115.5120        5.7066256E-18
   115.6735        5.7074987E-18
   115.8350        5.7066665E-18
   115.9965        5.7050481E-18
   116.1580        5.7035088E-18
   116.3195        5.7023060E-18
   116.4810        5.7011356E-18
   116.6425        5.6996574E-18
   116.8040        5.6979480E-18
   116.9655        5.6964624E-18
   117.1270        5.6955852E-18
   117.2885        5.6952489E-18
   117.4500        5.6950115E-18
   117.6115        5.6945136E-18
   117.7730        5.6938638E-18
   117.9345        5.6935520E-18
   118.0960        5.6939962E-18
   118.2575        5.6951716E-18
   118.4190        5.6966895E-18
   118.5805        5.6982185E-18
   118.7420        5.6997802E-18