  -27.90000        7.5508281E-18
  -27.73850        7.5559202E-18
  -27.57700        7.5641763E-18
  -27.41550        7.5730354E-18
  -27.25400        7.5807943E-18
  -27.09250        7.5874167E-18
  -26.93100        7.5941425E-18
  -26.76950        7.6022531E-18
  -26.60800        7.6119112E-18
  -26.44650        7.6219168E-18
  -26.28500        7.6305286E-18
  -26.12350        7.6367490E-18
  -25.96200        7.6411132E-18
  -25.80050        7.6453930E-18
  -25.63900        7.6513818E-18
  -25.47750        7.6596015E-18
  -25.31600        7.6688733E-18
  -25.15450        7.6771030E-18
  -24.99300        7.6827584E-18
  -24.83150        7.6860076E-18
  -24.67000        7.6886645E-18
  -24.50850        7.6929435E-18
  -24.34700        7.6998753E-18
  -24.18550        7.7085110E-18
  -24.02400        7.7165074E-18
  -23.86250        7.7217227E-18
  -23.70100        7.7237196E-18
  -23.53950        7.7241257E-18
  -23.37800        7.7255948E-18
  -23.21650        7.7300748E-18
  -23.05500        7.7375401E-18
  -22.89350        7.7460419E-18
  -22.73200        7.7530175E-18
  -22.57050        7.7569515E-18
  -22.40900        7.7582833E-18
  -22.24750        7.7589657E-18
  -22.08600        7.7610453E-18
  -21.92450        7.7652821E-18
  -21.76300        7.7707886E-18
  -21.60150        7.7758791E-18
  -21.44000        7.7794442E-18
  -21.27850        7.7817835E-18
  -21.11700        7.7842626E-18
  -20.95550        7.7880908E-18
  -20.79400        7.7931837E-18
  -20.63250        7.7980517E-18
  -20.47100        7.8008442E-18
  -20.30950        7.8008211E-18
  -20.14800        7.7991369E-18
  -19.98650        7.7983230E-18
  -19.82500        7.8007359E-18
  -19.66350        7.8070489E-18
  -19.50200        7.8158137E-18
  -19.34050        7.8244462E-18
  -19.17900        7.8309553E-18
  -19.01750        7.8352086E-18
  -18.85600        7.8388416E-18
  -18.69450        7.8438618E-18
  -18.53300        7.8509333E-18
  -18.37150        7.8586211E-18
  -18.21000        7.8641748E-18
  -18.04850        7.8653511E-18
  -17.88700        7.8620002E-18
  -17.72550        7.8562769E-18
  -17.56400        7.8513395E-18
  -17.40250        7.8494485E-18
  -17.24100        7.8507795E-18
  -17.07950        7.8537284E-18
  -16.91800        7.8563952E-18
  -16.75650        7.8581248E-18
  -16.59500        7.8599901E-18
  -16.43350        7.8638961E-18
  -16.27200        7.8709991E-18
  -16.11050        7.8806093E-18
  -15.94900        7.8904147E-18
  -15.78750        7.8979039E-18
  -15.62600        7.9019819E-18
  -15.46450        7.9036396E-18
  -15.30300        7.9051773E-18
  -15.14150        7.9085531E-18
  -14.98000        7.9140240E-18
  -14.81850        7.9200558E-18
  -14.65700        7.9245036E-18
  -14.49550        7.9261662E-18
  -14.33400        7.9255764E-18
  -14.17250        7.9244920E-18
  -14.01100        7.9245433E-18
  -13.84950        7.9260943E-18
  -13.68800        7.9281589E-18
  -13.52650        7.9294046E-18
  -13.36500        7.9294278E-18
  -13.20350        7.9293054E-18
  -13.04200        7.9309424E-18
  -12.88050        7.9356631E-18
  -12.71900        7.9430664E-18
  -12.55750        7.9510445E-18
  -12.39600        7.9570449E-18
  -12.23450        7.9597539E-18
  -12.07300        7.9600153E-18
  -11.91150        7.9602932E-18
  -11.75000        7.9629956E-18
  -11.58850        7.9688049E-18
  -11.42700        7.9761776E-18
  -11.26550        7.9823781E-18
  -11.10400        7.9853469E-18
  -10.94250        7.9851161E-18
  -10.78100        7.9838158E-18
  -10.61950        7.9842715E-18
  -10.45800        7.9881328E-18
  -10.29650        7.9947627E-18
  -10.13500        8.0015910E-18
  -9.973500        8.0056517E-18
  -9.812000        8.0053183E-18
  -9.650500        8.0011501E-18
  -9.489000        7.9954103E-18
  -9.327500        7.9906723E-18
  -9.166000        7.9884844E-18
  -9.004500        7.9889104E-18
  -8.843000        7.9910908E-18
  -8.681500        7.9942424E-18
  -8.520000        7.9982823E-18
  -8.358500        8.0036416E-18
  -8.197000        8.0105130E-18
  -8.035500        8.0182314E-18
  -7.874000        8.0253659E-18
  -7.712500        8.0305167E-18
  -7.551000        8.0332381E-18
  -7.389500        8.0343482E-18
  -7.228000        8.0353516E-18
  -7.066500        8.0373203E-18
  -6.905000        8.0400624E-18
  -6.743500        8.0422039E-18
  -6.582000        8.0422279E-18
  -6.420500        8.0397795E-18
  -6.259000        8.0363045E-18
  -6.097500        8.0344607E-18
  -5.936000        8.0365816E-18
  -5.774500        8.0431651E-18
  -5.613000        8.0524122E-18
  -5.451500        8.0612109E-18
  -5.290000        8.0669739E-18
  -5.128500        8.0691651E-18
  -4.967000        8.0695158E-18
  -4.805500        8.0708087E-18
  -4.644000        8.0750372E-18
  -4.482500        8.0821502E-18
  -4.321000        8.0901672E-18
  -4.159500        8.0965108E-18
  -3.998000        8.0996235E-18
  -3.836500        8.0997947E-18
  -3.675000        8.0987384E-18
  -3.513500        8.0983009E-18
  -3.352000        8.0992687E-18
  -3.190500        8.1010951E-18
  -3.029000        8.1026328E-18
  -2.867500        8.1032433E-18
  -2.706000        8.1034145E-18
  -2.544500        8.1043922E-18
  -2.383000        8.1071542E-18
  -2.221500        8.1115357E-18
  -2.060000        8.1162267E-18
  -1.898500        8.1196735E-18
  -1.737000        8.1212220E-18
  -1.575500        8.1216158E-18
  -1.414000        8.1224330E-18
  -1.252500        8.1248542E-18
  -1.091000        8.1286766E-18
 -0.9295000        8.1323608E-18
 -0.7680000        8.1341434E-18
 -0.6065000        8.1334502E-18
 -0.4450000        8.1315800E-18
 -0.2835000        8.1310870E-18
 -0.1220000        8.1341955E-18
  3.9500002E-02    8.1413018E-18
  0.2010000        8.1505605E-18
  0.3625000        8.1589067E-18
  0.5240000        8.1638409E-18
  0.6855000        8.1648202E-18
  0.8470000        8.1633627E-18
   1.008500        8.1618622E-18
   1.170000        8.1619507E-18
   1.331500        8.1635662E-18
   1.493000        8.1652876E-18
   1.654500        8.1656300E-18
   1.816000        8.1643132E-18
   1.977500        8.1625769E-18
   2.139000        8.1623585E-18
   2.300500        8.1649360E-18
   2.462000        8.1700596E-18
   2.623500        8.1761460E-18
   2.785000        8.1813688E-18
   2.946500        8.1848347E-18
   3.108000        8.1869879E-18
   3.269500        8.1890202E-18
   3.431000        8.1917632E-18
   3.592500        8.1949486E-18
   3.754000        8.1973905E-18
   3.915500        8.1979629E-18
   4.077000        8.1966187E-18
   4.238500        8.1946409E-18
   4.400000        8.1938865E-18
   4.561500        8.1955335E-18
   4.723000        8.1992442E-18
   4.884500        8.2033892E-18
   5.046000        8.2061950E-18
   5.207500        8.2070271E-18
   5.369000        8.2068724E-18
   5.530500        8.2076665E-18
   5.692000        8.2109298E-18
   5.853500        8.2166828E-18
   6.015000        8.2233937E-18
   6.176500        8.2290095E-18
   6.338000        8.2323281E-18
   6.499500        8.2337525E-18
   6.661000        8.2349089E-18
   6.822500        8.2374103E-18
   6.984000        8.2416455E-18
   7.145500        8.2464572E-18
   7.307000        8.2499247E-18
   7.468500        8.2507246E-18
   7.630000        8.2490868E-18
   7.791500        8.2467119E-18
   7.953000        8.2456912E-18
   8.114500        8.2472008E-18
   8.276000        8.2508487E-18
   8.437500        8.2550772E-18
   8.599000        8.2582693E-18
   8.760500        8.2597673E-18
   8.922000        8.2601057E-18
   9.083500        8.2603786E-18
   9.245000        8.2613001E-18
   9.406500        8.2626501E-18
   9.568000        8.2635169E-18
   9.729500        8.2631058E-18
   9.891000        8.2614862E-18
   10.05250        8.2597003E-18
   10.21400        8.2591403E-18
   10.37550        8.2606524E-18
   10.53700        8.2640149E-18
   10.69850        8.2681765E-18
   10.86000        8.2720642E-18
   11.02150        8.2753473E-18
   11.18300        8.2785675E-18
   11.34450        8.2825289E-18
   11.50600        8.2874142E-18
   11.66750        8.2923136E-18
   11.82900        8.2956016E-18
   11.99050        8.2959524E-18
   12.15200        8.2933136E-18
   12.31350        8.2891397E-18
   12.47500        8.2856647E-18
   12.63650        8.2846498E-18
   12.79800        8.2864174E-18
   12.95950        8.2897948E-18
   13.12100        8.2929886E-18
   13.28250        8.2948199E-18
   13.44400        8.2954891E-18
   13.60550        8.2963850E-18
   13.76700        8.2990832E-18
   13.92850        8.3042415E-18
   14.09000        8.3111336E-18
   14.25150        8.3181018E-18
   14.41300        8.3236050E-18
   14.57450        8.3271164E-18
   14.73600        8.3293018E-18
   14.89750        8.3314070E-18
   15.05900        8.3343368E-18
   15.22050        8.3380807E-18
   15.38200        8.3418096E-18
   15.54350        8.3445327E-18
   15.70500        8.3457569E-18
   15.86650        8.3457114E-18
   16.02800        8.3450100E-18
   16.18950        8.3440992E-18
   16.35100        8.3429528E-18
   16.51250        8.3412694E-18
   16.67400        8.3389972E-18
   16.83550        8.3367133E-18
   16.99700        8.3354866E-18
   17.15850        8.3362270E-18
   17.32000        8.3389674E-18
   17.48150        8.3426492E-18
   17.64300        8.3456287E-18
   17.80450        8.3466668E-18
   17.96600        8.3457288E-18
   18.12750        8.3440587E-18
   18.28900        8.3434284E-18
   18.45050        8.3450323E-18
   18.61200        8.3487513E-18
   18.77350        8.3532751E-18
   18.93500        8.3569917E-18
   19.09650        8.3590629E-18
   19.25800        8.3599612E-18
   19.41950        8.3611052E-18
   19.58100        8.3638498E-18
   19.74250        8.3685002E-18
   19.90400        8.3739960E-18
   20.06550        8.3784826E-18
   20.22700        8.3803744E-18
   20.38850        8.3792511E-18
   20.55000        8.3760375E-18
   20.71150        8.3724326E-18
   20.87300        8.3699974E-18
   21.03450        8.3694862E-18
   21.19600        8.3707667E-18
   21.35750        8.3732549E-18
   21.51900        8.3764577E-18
   21.68050        8.3802197E-18
   21.84200        8.3845542E-18
   22.00350        8.3892757E-18
   22.16500        8.3938020E-18
   22.32650        8.3973498E-18
   22.48800        8.3993913E-18
   22.64950        8.4000324E-18
   22.81100        8.3999761E-18
   22.97250        8.4000588E-18
   23.13400        8.4006701E-18
   23.29550        8.4014956E-18
   23.45700        8.4017835E-18
   23.61850        8.4009836E-18
   23.78000        8.3992829E-18
   23.94150        8.3976451E-18
   24.10300        8.3972505E-18
   24.26450        8.3987213E-18
   24.42600        8.4016371E-18
   24.58750        8.4047340E-18
   24.74900        8.4066945E-18
   24.91050        8.4070154E-18
   25.07200        8.4063942E-18
   25.23350        8.4063247E-18
   25.39500        8.4081801E-18
   25.55650        8.4123598E-18
   25.71800        8.4180773E-18
   25.87950        8.4238833E-18
   26.04100        8.4285544E-18
   26.20250        8.4317192E-18
   26.36400        8.4338392E-18
   26.52550        8.4356359E-18
   26.68700        8.4374209E-18
   26.84850        8.4388776E-18
   27.01000        8.4394219E-18
   27.17150        8.4388561E-18
   27.33300        8.4377874E-18
   27.49450        8.4374275E-18
   27.65600        8.4388743E-18
   27.81750        8.4423542E-18
   27.97900        8.4469790E-18
   28.14050        8.4512249E-18
   28.30200        8.4538239E-18
   28.46350        8.4544708E-18
   28.62500        8.4538702E-18
   28.78650        8.4531225E-18
   28.94800        8.4529322E-18
   29.10950        8.4532027E-18
   29.27100        8.4532995E-18
   29.43250        8.4527386E-18
   29.59400        8.4517452E-18
   29.75550        8.4512282E-18
   29.91700        8.4521795E-18
   30.07850        8.4549191E-18
   30.24000        8.4587589E-18
   30.40150        8.4623472E-18
   30.56300        8.4644739E-18
   30.72450        8.4647700E-18
   30.88600        8.4638295E-18
   31.04750        8.4626714E-18
   31.20900        8.4619683E-18
   31.37050        8.4616226E-18
   31.53200        8.4609956E-18
   31.69350        8.4596233E-18
   31.85500        8.4578415E-18
   32.01650        8.4568026E-18
   32.17800        8.4578142E-18
   32.33950        8.4614257E-18
   32.50100        8.4669289E-18
   32.66250        8.4726439E-18
   32.82400        8.4768708E-18
   32.98550        8.4788759E-18
   33.14700        8.4792862E-18
   33.30850        8.4796402E-18
   33.47000        8.4813897E-18
   33.63150        8.4850252E-18
   33.79300        8.4898485E-18
   33.95450        8.4945121E-18
   34.11600        8.4978936E-18
   34.27750        8.4997209E-18
   34.43900        8.5005497E-18
   34.60050        8.5011974E-18
   34.76200        8.5020709E-18
   34.92350        8.5029063E-18
   35.08500        8.5030585E-18
   35.24650        8.5020750E-18
   35.40800        8.5001146E-18
   35.56950        8.4978977E-18
   35.73100        8.4962541E-18
   35.89250        8.4956528E-18
   36.05400        8.4960531E-18
   36.21550        8.4971665E-18
   36.37700        8.4988498E-18
   36.53850        8.5012594E-18
   36.70000        8.5045714E-18
   36.86150        8.5084923E-18
   37.02300        8.5119946E-18
   37.18450        8.5136406E-18
   37.34600        8.5123999E-18
   37.50750        8.5084724E-18
   37.66900        8.5034854E-18
   37.83050        8.4997903E-18
   37.99200        8.4992022E-18
   38.15350        8.5019220E-18
   38.31500        8.5063937E-18
   38.47650        8.5102343E-18
   38.63800        8.5116935E-18
   38.79950        8.5107331E-18
   38.96100        8.5090093E-18
   39.12250        8.5087661E-18
   39.28400        8.5113543E-18
   39.44550        8.5163530E-18
   39.60700        8.5218413E-18
   39.76850        8.5256505E-18
   39.93000        8.5267391E-18
   40.09150        8.5258176E-18
   40.25300        8.5248514E-18
   40.41450        8.5258267E-18
   40.57600        8.5296044E-18
   40.73750        8.5355502E-18
   40.89900        8.5420874E-18
   41.06050        8.5476717E-18
   41.22200        8.5515421E-18
   41.38350        8.5538152E-18
   41.54500        8.5550377E-18
   41.70650        8.5556498E-18
   41.86800        8.5557872E-18
   42.02950        8.5554778E-18
   42.19100        8.5549393E-18
   42.35250        8.5546026E-18
   42.51400        8.5547639E-18
   42.67550        8.5551726E-18
   42.83700        8.5549633E-18
   42.99850        8.5531518E-18
   43.16000        8.5494021E-18
   43.32150        8.5445069E-18
   43.48300        8.5401303E-18
   43.64450        8.5378878E-18
   43.80600        8.5383444E-18
   43.96750        8.5406233E-18
   44.12900        8.5429650E-18
   44.29050        8.5438981E-18
   44.45200        8.5432471E-18
   44.61350        8.5422892E-18
   44.77500        8.5429220E-18
   44.93650        8.5463805E-18
   45.09800        8.5523535E-18
   45.25950        8.5590959E-18
   45.42100        8.5644610E-18
   45.58250        8.5671493E-18
   45.74400        8.5673693E-18
   45.90550        8.5665124E-18
   46.06700        8.5661410E-18
   46.22850        8.5670302E-18
   46.39000        8.5688971E-18
   46.55150        8.5709138E-18
   46.71300        8.5725218E-18
   46.87450        8.5739123E-18
   47.03600        8.5758074E-18
   47.19750        8.5787762E-18
   47.35900        8.5826209E-18
   47.52050        8.5863209E-18
   47.68200        8.5886138E-18
   47.84350        8.5887809E-18
   48.00500        8.5871100E-18
   48.16650        8.5846971E-18
   48.32800        8.5827384E-18
   48.48950        8.5818227E-18
   48.65100        8.5817044E-18
   48.81250        8.5816862E-18
   48.97400        8.5812916E-18
   49.13550        8.5807093E-18
   49.29700        8.5806737E-18
   49.45850        8.5818946E-18
   49.62000        8.5844622E-18
   49.78150        8.5876899E-18
   49.94300        8.5904899E-18
   50.10450        8.5920235E-18
   50.26600        8.5921583E-18
   50.42750        8.5914618E-18
   50.58900        8.5907744E-18
   50.75050        8.5906851E-18
   50.91200        8.5912864E-18
   51.07350        8.5923006E-18
   51.23500        8.5934479E-18
   51.39650        8.5947308E-18
   51.55800        8.5964059E-18
   51.71950        8.5986831E-18
   51.88100        8.6014086E-18
   52.04250        8.6040366E-18
   52.20400        8.6059391E-18
   52.36550        8.6068689E-18
   52.52700        8.6071906E-18
   52.68850        8.6076762E-18
   52.85000        8.6089641E-18
   53.01150        8.6110718E-18
   53.17300        8.6133126E-18
   53.33450        8.6147188E-18
   53.49600        8.6146866E-18
   53.65750        8.6134102E-18
   53.81900        8.6117732E-18
   53.98050        8.6107583E-18
   54.14200        8.6107517E-18
   54.30350        8.6112339E-18
   54.46500        8.6111024E-18
   54.62650        8.6094596E-18
   54.78800        8.6063560E-18
   54.94950        8.6029770E-18
   55.11100        8.6010703E-18
   55.27250        8.6019521E-18
   55.43400        8.6057083E-18
   55.59550        8.6111123E-18
   55.75700        8.6163359E-18
   55.91850        8.6199830E-18
   56.08000        8.6217978E-18
   56.24150        8.6226052E-18
   56.40300        8.6235912E-18
   56.56450        8.6254424E-18
   56.72600        8.6279239E-18
   56.88750        8.6301614E-18
   57.04900        8.6313799E-18
   57.21050        8.6315519E-18
   57.37200        8.6314874E-18
   57.53350        8.6322931E-18
   57.69500        8.6345836E-18
   57.85650        8.6380056E-18
   58.01800        8.6414103E-18
   58.17950        8.6435411E-18
   58.34100        8.6437553E-18
   58.50250        8.6422912E-18
   58.66400        8.6399553E-18
   58.82550        8.6375333E-18
   58.98700        8.6353876E-18
   59.14850        8.6335223E-18
   59.31000        8.6319705E-18
   59.47150        8.6310920E-18
   59.63300        8.6314684E-18
   59.79450        8.6334412E-18
   59.95600        8.6366755E-18
   60.11750        8.6401588E-18
   60.27900        8.6427578E-18
   60.44050        8.6439654E-18
   60.60200        8.6442988E-18
   60.76350        8.6449655E-18
   60.92500        8.6469805E-18
   61.08650        8.6503074E-18
   61.24800        8.6537080E-18
   61.40950        8.6554864E-18
   61.57100        8.6546965E-18
   61.73250        8.6519668E-18
   61.89400        8.6492966E-18
   62.05550        8.6488665E-18
   62.21700        8.6515962E-18
   62.37850        8.6564228E-18
   62.54000        8.6608366E-18
   62.70150        8.6623859E-18
   62.86300        8.6602046E-18
   63.02450        8.6556063E-18
   63.18600        8.6513414E-18
   63.34750        8.6500039E-18
   63.50900        8.6525681E-18
   63.67050        8.6579349E-18
   63.83200        8.6637020E-18
   63.99350        8.6676071E-18
   64.15500        8.6687246E-18
   64.31650        8.6677353E-18
   64.47800        8.6662265E-18
   64.63950        8.6655896E-18
   64.80100        8.6662406E-18
   64.96250        8.6675765E-18
   65.12400        8.6685484E-18
   65.28550        8.6683755E-18
   65.44700        8.6669387E-18
   65.60850        8.6647062E-18
   65.77000        8.6624074E-18
   65.93150        8.6607316E-18
   66.09300        8.6602104E-18
   66.25450        8.6611948E-18
   66.41600        8.6637491E-18
   66.57750        8.6674383E-18
   66.73900        8.6711995E-18
   66.90050        8.6735570E-18
   67.06200        8.6732642E-18
   67.22350        8.6700936E-18
   67.38500        8.6652380E-18
   67.54650        8.6609226E-18
   67.70800        8.6592947E-18
   67.86950        8.6611774E-18
   68.03100        8.6654903E-18
   68.19250        8.6697917E-18
   68.35400        8.6717240E-18
   68.51550        8.6704873E-18
   68.67700        8.6674094E-18
   68.83850        8.6651686E-18
   69.00000        8.6661024E-18
   69.16150        8.6706602E-18
   69.32300        8.6769931E-18
   69.48450        8.6820174E-18
   69.64600        8.6832896E-18
   69.80750        8.6805458E-18
   69.96900        8.6759169E-18
   70.13050        8.6726777E-18
   70.29200        8.6733179E-18
   70.45350        8.6781131E-18
   70.61500        8.6850498E-18
   70.77650        8.6910783E-18
   70.93800        8.6938750E-18
   71.09950        8.6930338E-18
   71.26100        8.6900650E-18
   71.42250        8.6873320E-18
   71.58400        8.6866819E-18
   71.74550        8.6885943E-18
   71.90700        8.6922182E-18
   72.06850        8.6960869E-18
   72.23000        8.6989448E-18
   72.39150        8.7002046E-18
   72.55300        8.6999341E-18
   72.71450        8.6985982E-18
   72.87600        8.6968446E-18
   73.03750        8.6954078E-18
   73.19900        8.6949917E-18
   73.36050        8.6959744E-18
   73.52200        8.6980399E-18
   73.68350        8.7000590E-18
   73.84500        8.7005148E-18
   74.00650        8.6984096E-18
   74.16800        8.6941463E-18
   74.32950        8.6897003E-18
   74.49100        8.6877506E-18
   74.65250        8.6901196E-18
   74.81400        8.6964335E-18
   74.97550        8.7039633E-18
   75.13700        8.7089380E-18
   75.29850        8.7086725E-18
   75.46000        8.7032255E-18
   75.62150        8.6954897E-18
   75.78300        8.6895414E-18
   75.94450        8.6882188E-18
   76.10600        8.6914390E-18
   76.26750        8.6963541E-18
   76.42900        8.6992451E-18
   76.59050        8.6979472E-18
   76.75200        8.6932389E-18
   76.91350        8.6883098E-18
   77.07500        8.6866852E-18
   77.23650        8.6899749E-18
   77.39800        8.6968901E-18
   77.55950        8.7040940E-18
   77.72100        8.7082729E-18
   77.88250        8.7080537E-18
   78.04400        8.7045945E-18
   78.20550        8.7006207E-18
   78.36700        8.6986826E-18
   78.52850        8.6997985E-18
   78.69000        8.7032420E-18
   78.85150        8.7073572E-18
   79.01300        8.7106519E-18
   79.17450        8.7124113E-18
   79.33600        8.7126082E-18
   79.49750        8.7114774E-18
   79.65900        8.7092846E-18
   79.82050        8.7064647E-18
   79.98200        8.7038624E-18
   80.14350        8.7025877E-18
   80.30500        8.7033876E-18
   80.46650        8.7059055E-18
   80.62800        8.7085393E-18
   80.78950        8.7092184E-18
   80.95100        8.7067791E-18
   81.11250        8.7019731E-18
   81.27400        8.6972872E-18
   81.43550        8.6954731E-18
   81.59700        8.6976834E-18
   81.75850        8.7025191E-18
   81.92000        8.7067741E-18
   82.08150        8.7074970E-18
   82.24300        8.7040378E-18
   82.40450        8.6986388E-18
   82.56600        8.6951092E-18
   82.72750        8.6964012E-18
   82.88900        8.7027085E-18
   83.05050        8.7113393E-18
   83.21200        8.7184398E-18
   83.37350        8.7213730E-18
   83.53500        8.7201852E-18
   83.69650        8.7172387E-18
   83.85800        8.7153809E-18
   84.01950        8.7159864E-18
   84.18100        8.7181950E-18
   84.34250        8.7197724E-18
   84.50400        8.7188551E-18
   84.66550        8.7152891E-18
   84.82700        8.7106833E-18
   84.98850        8.7072580E-18
   85.15000        8.7064366E-18
   85.31150        8.7081447E-18
   85.47300        8.7111805E-18
   85.63450        8.7142005E-18
   85.79600        8.7165017E-18
   85.95750        8.7181131E-18
   86.11900        8.7193166E-18
   86.28050        8.7201579E-18
   86.44200        8.7204052E-18
   86.60350        8.7199478E-18
   86.76500        8.7191719E-18
   86.92650        8.7188675E-18
   87.08800        8.7196285E-18
   87.24950        8.7212216E-18
   87.41100        8.7225244E-18
   87.57250        8.7222283E-18
   87.73400        8.7198741E-18
   87.89550        8.7164116E-18
   88.05700        8.7137398E-18
   88.21850        8.7134511E-18
   88.38000        8.7156564E-18
   88.54150        8.7187856E-18
   88.70300        8.7206136E-18
   88.86450        8.7198229E-18
   89.02600        8.7170022E-18
   89.18750        8.7143238E-18
   89.34900        8.7140922E-18
   89.51050        8.7171469E-18
   89.67200        8.7222374E-18
   89.83350        8.7268150E-18
   89.99500        8.7287175E-18
   90.15650        8.7275760E-18
   90.31800        8.7249960E-18
   90.47950        8.7233888E-18
   90.64100        8.7242690E-18
   90.80250        8.7272253E-18
   90.96400        8.7302478E-18
   91.12550        8.7311561E-18
   91.28700        8.7290939E-18
   91.44850        8.7250597E-18
   91.61000        8.7211521E-18
   91.77150        8.7191429E-18
   91.93300        8.7193803E-18
   92.09450        8.7207394E-18
   92.25600        8.7215335E-18
   92.41750        8.7206906E-18
   92.57900        8.7183811E-18
   92.74050        8.7157697E-18
   92.90200        8.7141831E-18
   93.06350        8.7143337E-18
   93.22500        8.7160948E-18
   93.38650        8.7188592E-18
   93.54800        8.7220918E-18
   93.70950        8.7256123E-18
   93.87100        8.7294206E-18
   94.03250        8.7333291E-18
   94.19400        8.7367933E-18
   94.35550        8.7391673E-18
   94.51700        8.7401517E-18
   94.67850        8.7400425E-18
   94.84000        8.7394924E-18
   95.00150        8.7389522E-18
   95.16300        8.7382533E-18
   95.32450        8.7367155E-18
   95.48600        8.7337600E-18
   95.64750        8.7295588E-18
   95.80900        8.7252053E-18
   95.97050        8.7221828E-18
   96.13200        8.7214690E-18
   96.29350        8.7228619E-18
   96.45500        8.7250482E-18
   96.61650        8.7263874E-18
   96.77800        8.7259250E-18
   96.93950        8.7239406E-18
   97.10100        8.7216807E-18
   97.26250        8.7204482E-18
   97.42400        8.7207377E-18
   97.58550        8.7219876E-18
   97.74700        8.7231374E-18
   97.90850        8.7235129E-18
   98.07000        8.7233814E-18
   98.23150        8.7237545E-18
   98.39300        8.7255875E-18
   98.55450        8.7289748E-18
   98.71600        8.7329362E-18
   98.87750        8.7359545E-18
   99.03900        8.7369265E-18
   99.20050        8.7358586E-18
   99.36200        8.7338717E-18
   99.52350        8.7325019E-18
   99.68500        8.7327616E-18
   99.84650        8.7345781E-18
   100.0080        8.7369323E-18
   100.1695        8.7385825E-18
   100.3310        8.7388637E-18
   100.4925        8.7380415E-18
   100.6540        8.7370233E-18
   100.8155        8.7366667E-18
   100.9770        8.7371779E-18
   101.1385        8.7379778E-18
   101.3000        8.7381085E-18
   101.4615        8.7368942E-18
   101.6230        8.7344152E-18
   101.7845        8.7315208E-18
   101.9460        8.7293619E-18
   102.1075        8.7287514E-18
   102.2690        8.7297226E-18
   102.4305        8.7315266E-18
   102.5920        8.7330602E-18
   102.7535        8.7334440E-18
   102.9150        8.7324432E-18
   103.0765        8.7305249E-18
   103.2380        8.7285686E-18
   103.3995        8.7274106E-18
   103.5610        8.7274652E-18
   103.7225        8.7285868E-18
   103.8840        8.7302139E-18
   104.0455        8.7317111E-18
   104.2070        8.7327335E-18
   104.3685        8.7334407E-18
   104.5300        8.7344350E-18
   104.6915        8.7364475E-18
   104.8530        8.7398927E-18
   105.0145        8.7445134E-18
   105.1760        8.7493110E-18
   105.3375        8.7528340E-18
   105.4990        8.7537919E-18
   105.6605        8.7517065E-18
   105.8220        8.7472836E-18
   105.9835        8.7422163E-18
   106.1450        8.7384386E-18
   106.3065        8.7371597E-18
   106.4680        8.7382086E-18
   106.6295        8.7400962E-18
   106.7910        8.7408151E-18
   106.9525        8.7389704E-18
   107.1140        8.7346095E-18
   107.2755        8.7292808E-18
   107.4370        8.7252368E-18
   107.5985        8.7242003E-18
   107.7600        8.7263659E-18
   107.9215        8.7302321E-18
   108.0830        8.7334167E-18
   108.2445        8.7340413E-18
   108.4060        8.7319038E-18
   108.5675        8.7287093E-18
   108.7290        8.7271525E-18
   108.8905        8.7293379E-18
   109.0520        8.7354392E-18
   109.2135        8.7434174E-18
   109.3750        8.7500125E-18
   109.5365        8.7525081E-18
   109.6980        8.7502697E-18
   109.8595        8.7451726E-18
   110.0210        8.7405967E-18
   110.1825        8.7395031E-18
   110.3440        8.7426985E-18
   110.5055        8.7483407E-18
   110.6670        8.7530193E-18
   110.8285        8.7538010E-18
   110.9900        8.7499926E-18
   111.1515        8.7435175E-18
   111.3130        8.7376974E-18
   111.4745        8.7352324E-18
   111.6360        8.7366527E-18
   111.7975        8.7401789E-18
   111.9590        8.7429930E-18
   112.1205        8.7430402E-18
   112.2820        8.7402302E-18
   112.4435        8.7363516E-18
   112.6050        8.7338651E-18
   112.7665        8.7344102E-18
   112.9280        8.7379588E-18
   113.0895        8.7430253E-18
   113.2510        8.7476153E-18
   113.4125        8.7502259E-18
   113.5740        8.7502871E-18
   113.7355        8.7480339E-18
   113.8970        8.7441263E-18
   114.0585        8.7394320E-18
   114.2200        8.7349818E-18
   114.3815        8.7318525E-18
   114.5430        8.7307673E-18
   114.7045        8.7315986E-18
   114.8660        8.7332248E-18
   115.0275        8.7340983E-18
   115.1890        8.7332927E-18
   115.3505        8.7313306E-18
   115.5120        8.7300708E-18
   115.6735        8.7315382E-18
   115.8350        8.7363855E-18
   115.9965        8.7431072E-18
   116.1580        8.7487130E-18
   116.3195        8.7505915E-18
   116.4810        8.7483639E-18
   116.6425        8.7443694E-18
   116.8040        8.7422850E-18
   116.9655        8.7446887E-18
   117.1270        8.7512069E-18
   117.2885        8.7586036E-18
   117.4500        8.7628536E-18
   117.6115        8.7618304E-18
   117.7730        8.7567375E-18
   117.9345        8.7512706E-18
   118.0960        8.7490687E-18
   118.2575        8.7512268E-18
   118.4190        8.7555835E-18
   118.5805        8.7582661E-18
   118.7420        8.7563842E-18