  -27.90000        8.0389283E-18
  -27.73850        8.0636263E-18
  -27.57700        8.1038579E-18
  -27.41550        8.1457546E-18
  -27.25400        8.1766497E-18
  -27.09250        8.1904405E-18
  -26.93100        8.1900443E-18
  -26.76950        8.1858083E-18
  -26.60800        8.1905059E-18
  -26.44650        8.2131582E-18
  -26.28500        8.2545147E-18
  -26.12350        8.3063649E-18
  -25.96200        8.3550875E-18
  -25.80050        8.3878711E-18
  -25.63900        8.3987006E-18
  -25.47750        8.3912543E-18
  -25.31600        8.3772907E-18
  -25.15450        8.3712341E-18
  -24.99300        8.3835235E-18
  -24.83150        8.4158489E-18
  -24.67000        8.4605183E-18
  -24.50850        8.5041992E-18
  -24.34700        8.5341969E-18
  -24.18550        8.5443125E-18
  -24.02400        8.5375850E-18
  -23.86250        8.5247183E-18
  -23.70100        8.5190306E-18
  -23.53950        8.5302959E-18
  -23.37800        8.5602945E-18
  -23.21650        8.6020654E-18
  -23.05500        8.6431523E-18
  -22.89350        8.6713344E-18
  -22.73200        8.6802414E-18
  -22.57050        8.6722823E-18
  -22.40900        8.6575635E-18
  -22.24750        8.6492478E-18
  -22.08600        8.6574675E-18
  -21.92450        8.6845635E-18
  -21.76300        8.7238967E-18
  -21.60150        8.7628470E-18
  -21.44000        8.7886732E-18
  -21.27850        8.7945289E-18
  -21.11700        8.7827705E-18
  -20.95550        8.7639381E-18
  -20.79400        8.7518124E-18
  -20.63250        8.7569029E-18
  -20.47100        8.7814784E-18
  -20.30950        8.8185411E-18
  -20.14800        8.8552439E-18
  -19.98650        8.8790932E-18
  -19.82500        8.8839487E-18
  -19.66350        8.8729464E-18
  -19.50200        8.8569537E-18
  -19.34050        8.8493172E-18
  -19.17900        8.8594245E-18
  -19.01750        8.8881541E-18
  -18.85600        8.9273757E-18
  -18.69450        8.9637179E-18
  -18.53300        8.9847986E-18
  -18.37150        8.9849905E-18
  -18.21000        8.9680316E-18
  -18.04850        8.9452933E-18
  -17.88700        8.9305405E-18
  -17.72550        8.9336060E-18
  -17.56400        8.9558952E-18
  -17.40250        8.9898154E-18
  -17.24100        9.0224361E-18
  -17.07950        9.0416970E-18
  -16.91800        9.0422645E-18
  -16.75650        9.0282239E-18
  -16.59500        9.0112270E-18
  -16.43350        9.0049107E-18
  -16.27200        9.0181993E-18
  -16.11050        9.0507216E-18
  -15.94900        9.0926150E-18
  -15.78750        9.1289141E-18
  -15.62600        9.1465265E-18
  -15.46450        9.1404558E-18
  -15.30300        9.1162574E-18
  -15.14150        9.0874674E-18
  -14.98000        9.0691917E-18
  -14.81850        9.0709635E-18
  -14.65700        9.0923726E-18
  -14.49550        9.1235929E-18
  -14.33400        9.1504978E-18
  -14.17250        9.1618202E-18
  -14.01100        9.1548123E-18
  -13.84950        9.1366987E-18
  -13.68800        9.1212685E-18
  -13.52650        9.1222785E-18
  -13.36500        9.1468433E-18
  -13.20350        9.1919478E-18
  -13.04200        9.2457005E-18
  -12.88050        9.2927149E-18
  -12.71900        9.3210459E-18
  -12.55750        9.3274300E-18
  -12.39600        9.3183947E-18
  -12.23450        9.3068225E-18
  -12.07300        9.3056313E-18
  -11.91150        9.3215438E-18
  -11.75000        9.3518343E-18
  -11.58850        9.3855486E-18
  -11.42700        9.4086426E-18
  -11.26550        9.4106899E-18
  -11.10400        9.3900054E-18
  -10.94250        9.3547353E-18
  -10.78100        9.3192964E-18
  -10.61950        9.2977897E-18
  -10.45800        9.2974960E-18
  -10.29650        9.3155699E-18
  -10.13500        9.3405417E-18
  -9.973500        9.3579406E-18
  -9.812000        9.3573765E-18
  -9.650500        9.3377193E-18
  -9.489000        9.3078763E-18
  -9.327500        9.2827416E-18
  -9.166000        9.2761912E-18
  -9.004500        9.2944801E-18
  -8.843000        9.3332228E-18
  -8.681500        9.3794613E-18
  -8.520000        9.4178086E-18
  -8.358500        9.4376709E-18
  -8.197000        9.4380481E-18
  -8.035500        9.4276388E-18
  -7.874000        9.4202893E-18
  -7.712500        9.4280491E-18
  -7.551000        9.4551964E-18
  -7.389500        9.4960773E-18
  -7.228000        9.5377705E-18
  -7.066500        9.5662569E-18
  -6.905000        9.5731109E-18
  -6.743500        9.5595195E-18
  -6.582000        9.5357381E-18
  -6.420500        9.5163399E-18
  -6.259000        9.5135879E-18
  -6.097500        9.5320497E-18
  -5.936000        9.5668542E-18
  -5.774500        9.6062280E-18
  -5.613000        9.6370164E-18
  -5.451500        9.6506277E-18
  -5.290000        9.6467383E-18
  -5.128500        9.6331510E-18
  -4.967000        9.6219311E-18
  -4.805500        9.6236128E-18
  -4.644000        9.6421656E-18
  -4.482500        9.6730277E-18
  -4.321000        9.7051265E-18
  -4.159500        9.7259607E-18
  -3.998000        9.7274182E-18
  -3.836500        9.7096768E-18
  -3.675000        9.6813442E-18
  -3.513500        9.6557157E-18
  -3.352000        9.6447961E-18
  -3.190500        9.6538322E-18
  -3.029000        9.6789909E-18
  -2.867500        9.7093220E-18
  -2.706000        9.7320967E-18
  -2.544500        9.7389127E-18
  -2.383000        9.7295738E-18
  -2.221500        9.7118895E-18
  -2.060000        9.6976025E-18
  -1.898500        9.6965205E-18
  -1.737000        9.7117373E-18
  -1.575500        9.7382203E-18
  -1.414000        9.7653138E-18
  -1.252500        9.7818839E-18
  -1.091000        9.7815580E-18
 -0.9295000        9.7656066E-18
 -0.7680000        9.7422024E-18
 -0.6065000        9.7225668E-18
 -0.4450000        9.7159394E-18
 -0.2835000        9.7257067E-18
 -0.1220000        9.7483310E-18
  3.9500002E-02    9.7753434E-18
  0.2010000        9.7973546E-18
  0.3625000        9.8082561E-18
  0.5240000        9.8078019E-18
  0.6855000        9.8015253E-18
  0.8470000        9.7980470E-18
   1.008500        9.8049953E-18
   1.170000        9.8253754E-18
   1.331500        9.8560489E-18
   1.493000        9.8890584E-18
   1.654500        9.9152155E-18
   1.816000        9.9282916E-18
   1.977500        9.9278622E-18
   2.139000        9.9194498E-18
   2.300500        9.9118455E-18
   2.462000        9.9128481E-18
   2.623500        9.9254427E-18
   2.785000        9.9463117E-18
   2.946500        9.9674387E-18
   3.108000        9.9800458E-18
   3.269500        9.9789001E-18
   3.431000        9.9648546E-18
   3.592500        9.9444092E-18
   3.754000        9.9266115E-18
   3.915500        9.9188915E-18
   4.077000        9.9238645E-18
   4.238500        9.9385585E-18
   4.400000        9.9562759E-18
   4.561500        9.9700617E-18
   4.723000        9.9760745E-18
   4.884500        9.9752804E-18
   5.046000        9.9727773E-18
   5.207500        9.9751977E-18
   5.369000        9.9874912E-18
   5.530500        1.0010562E-17
   5.692000        1.0040772E-17
   5.853500        1.0071419E-17
   6.015000        1.0095473E-17
   6.176500        1.0108413E-17
   6.338000        1.0109965E-17
   6.499500        1.0104048E-17
   6.661000        1.0096922E-17
   6.822500        1.0094336E-17
   6.984000        1.0098924E-17
   7.145500        1.0109079E-17
   7.307000        1.0119846E-17
   7.468500        1.0125463E-17
   7.630000        1.0122368E-17
   7.791500        1.0111198E-17
   7.953000        1.0096782E-17
   8.114500        1.0086062E-17
   8.276000        1.0084874E-17
   8.437500        1.0095168E-17
   8.599000        1.0114018E-17
   8.760500        1.0134971E-17
   8.922000        1.0151053E-17
   9.083500        1.0157952E-17
   9.245000        1.0155822E-17
   9.406500        1.0148882E-17
   9.568000        1.0143134E-17
   9.729500        1.0143417E-17
   9.891000        1.0151235E-17
   10.05250        1.0164318E-17
   10.21400        1.0177977E-17
   10.37550        1.0187486E-17
   10.53700        1.0190318E-17
   10.69850        1.0187240E-17
   10.86000        1.0181866E-17
   11.02150        1.0178975E-17
   11.18300        1.0182421E-17
   11.34450        1.0193531E-17
   11.50600        1.0210627E-17
   11.66750        1.0229777E-17
   11.82900        1.0246421E-17
   11.99050        1.0257241E-17
   12.15200        1.0261500E-17
   12.31350        1.0261326E-17
   12.47500        1.0260754E-17
   12.63650        1.0263887E-17
   12.79800        1.0272969E-17
   12.95950        1.0287274E-17
   13.12100        1.0303373E-17
   13.28250        1.0316739E-17
   13.44400        1.0323926E-17
   13.60550        1.0324302E-17
   13.76700        1.0320433E-17
   13.92850        1.0316922E-17
   14.09000        1.0318200E-17
   14.25150        1.0326387E-17
   14.41300        1.0340279E-17
   14.57450        1.0355994E-17
   14.73600        1.0368940E-17
   14.89750        1.0376098E-17
   15.05900        1.0377450E-17
   15.22050        1.0375884E-17
   15.38200        1.0375705E-17
   15.54350        1.0380536E-17
   15.70500        1.0391665E-17
   15.86650        1.0407546E-17
   16.02800        1.0424604E-17
   16.18950        1.0438880E-17
   16.35100        1.0447727E-17
   16.51250        1.0450823E-17
   16.67400        1.0450110E-17
   16.83550        1.0448749E-17
   16.99700        1.0449609E-17
   17.15850        1.0453947E-17
   17.32000        1.0460849E-17
   17.48150        1.0467641E-17
   17.64300        1.0471107E-17
   17.80450        1.0469039E-17
   17.96600        1.0461426E-17
   18.12750        1.0450763E-17
   18.28900        1.0441229E-17
   18.45050        1.0437031E-17
   18.61200        1.0440624E-17
   18.77350        1.0451652E-17
   18.93500        1.0467153E-17
   19.09650        1.0482949E-17
   19.25800        1.0495586E-17
   19.41950        1.0503862E-17
   19.58100        1.0509245E-17
   19.74250        1.0514976E-17
   19.90400        1.0524317E-17
   20.06550        1.0538776E-17
   20.22700        1.0557159E-17
   20.38850        1.0575918E-17
   20.55000        1.0590613E-17
   20.71150        1.0597847E-17
   20.87300        1.0596761E-17
   21.03450        1.0589442E-17
   21.19600        1.0580066E-17
   21.35750        1.0573180E-17
   21.51900        1.0571855E-17
   21.68050        1.0576514E-17
   21.84200        1.0584908E-17
   22.00350        1.0593272E-17
   22.16500        1.0598147E-17
   22.32650        1.0598072E-17
   22.48800        1.0594346E-17
   22.64950        1.0590460E-17
   22.81100        1.0590465E-17
   22.97250        1.0597011E-17
   23.13400        1.0610015E-17
   23.29550        1.0626602E-17
   23.45700        1.0642342E-17
   23.61850        1.0653222E-17
   23.78000        1.0657428E-17
   23.94150        1.0656134E-17
   24.10300        1.0652930E-17
   24.26450        1.0652175E-17
   24.42600        1.0657022E-17
   24.58750        1.0668030E-17
   24.74900        1.0682979E-17
   24.91050        1.0697951E-17
   25.07200        1.0709139E-17
   25.23350        1.0714566E-17
   25.39500        1.0714920E-17
   25.55650        1.0713200E-17
   25.71800        1.0713320E-17
   25.87950        1.0718324E-17
   26.04100        1.0729002E-17
   26.20250        1.0743509E-17
   26.36400        1.0758189E-17
   26.52550        1.0769215E-17
   26.68700        1.0774315E-17
   26.84850        1.0773792E-17
   27.01000        1.0770368E-17
   27.17150        1.0767963E-17
   27.33300        1.0769924E-17
   27.49450        1.0777527E-17
   27.65600        1.0789399E-17
   27.81750        1.0802104E-17
   27.97900        1.0811681E-17
   28.14050        1.0815448E-17
   28.30200        1.0813272E-17
   28.46350        1.0807692E-17
   28.62500        1.0802779E-17
   28.78650        1.0802236E-17
   28.94800        1.0807623E-17
   29.10950        1.0817590E-17
   29.27100        1.0828544E-17
   29.43250        1.0836451E-17
   29.59400        1.0838921E-17
   29.75550        1.0836537E-17
   29.91700        1.0832683E-17
   30.07850        1.0831957E-17
   30.24000        1.0837886E-17
   30.40150        1.0851103E-17
   30.56300        1.0868913E-17
   30.72450        1.0886474E-17
   30.88600        1.0898990E-17
   31.04750        1.0903836E-17
   31.20900        1.0901622E-17
   31.37050        1.0895746E-17
   31.53200        1.0890763E-17
   31.69350        1.0890338E-17
   31.85500        1.0895728E-17
   32.01650        1.0905375E-17
   32.17800        1.0915715E-17
   32.33950        1.0922853E-17
   32.50100        1.0924369E-17
   32.66250        1.0920544E-17
   32.82400        1.0914439E-17
   32.98550        1.0910727E-17
   33.14700        1.0913717E-17
   33.30850        1.0925364E-17
   33.47000        1.0944192E-17
   33.63150        1.0965707E-17
   33.79300        1.0984249E-17
   33.95450        1.0995500E-17
   34.11600        1.0998488E-17
   34.27750        1.0996038E-17
   34.43900        1.0993388E-17
   34.60050        1.0995561E-17
   34.76200        1.1004791E-17
   34.92350        1.1019321E-17
   35.08500        1.1034204E-17
   35.24650        1.1043716E-17
   35.40800        1.1044183E-17
   35.56950        1.1035841E-17
   35.73100        1.1022819E-17
   35.89250        1.1011299E-17
   36.05400        1.1006733E-17
   36.21550        1.1011407E-17
   36.37700        1.1023484E-17
   36.53850        1.1037942E-17
   36.70000        1.1048951E-17
   36.86150        1.1052624E-17
   37.02300        1.1048855E-17
   37.18450        1.1041403E-17
   37.34600        1.1036168E-17
   37.50750        1.1038442E-17
   37.66900        1.1050393E-17
   37.83050        1.1069997E-17
   37.99200        1.1091920E-17
   38.15350        1.1110003E-17
   38.31500        1.1120157E-17
   38.47650        1.1122290E-17
   38.63800        1.1120264E-17
   38.79950        1.1119895E-17
   38.96100        1.1125956E-17
   39.12250        1.1139700E-17
   39.28400        1.1158132E-17
   39.44550        1.1175409E-17
   39.60700        1.1185657E-17
   39.76850        1.1185803E-17
   39.93000        1.1177087E-17
   40.09150        1.1164506E-17
   40.25300        1.1154501E-17
   40.41450        1.1151975E-17
   40.57600        1.1158063E-17
   40.73750        1.1169696E-17
   40.89900        1.1181176E-17
   41.06050        1.1186998E-17
   41.22200        1.1184579E-17
   41.38350        1.1175545E-17
   41.54500        1.1164988E-17
   41.70650        1.1158997E-17
   41.86800        1.1161674E-17
   42.02950        1.1173064E-17
   42.19100        1.1189034E-17
   42.35250        1.1203218E-17
   42.51400        1.1210116E-17
   42.67550        1.1207828E-17
   42.83700        1.1199035E-17
   42.99850        1.1189698E-17
   43.16000        1.1186117E-17
   43.32150        1.1191845E-17
   43.48300        1.1206005E-17
   43.64450        1.1223843E-17
   43.80600        1.1239183E-17
   43.96750        1.1247525E-17
   44.12900        1.1248236E-17
   44.29050        1.1244785E-17
   44.45200        1.1242955E-17
   44.61350        1.1247938E-17
   44.77500        1.1261764E-17
   44.93650        1.1282297E-17
   45.09800        1.1304249E-17
   45.25950        1.1321638E-17
   45.42100        1.1330475E-17
   45.58250        1.1330425E-17
   45.74400        1.1324734E-17
   45.90550        1.1318552E-17
   46.06700        1.1316504E-17
   46.22850        1.1320620E-17
   46.39000        1.1329564E-17
   46.55150        1.1339462E-17
   46.71300        1.1345928E-17
   46.87450        1.1346275E-17
   47.03600        1.1340866E-17
   47.19750        1.1332939E-17
   47.35900        1.1327036E-17
   47.52050        1.1326863E-17
   47.68200        1.1333601E-17
   47.84350        1.1345479E-17
   48.00500        1.1358747E-17
   48.16650        1.1369524E-17
   48.32800        1.1375619E-17
   48.48950        1.1377419E-17
   48.65100        1.1377481E-17
   48.81250        1.1379067E-17
   48.97400        1.1384438E-17
   49.13550        1.1393757E-17
   49.29700        1.1405118E-17
   49.45850        1.1415540E-17
   49.62000        1.1422358E-17
   49.78150        1.1424320E-17
   49.94300        1.1421980E-17
   50.10450        1.1417325E-17
   50.26600        1.1412905E-17
   50.42750        1.1410829E-17
   50.58900        1.1412009E-17
   50.75050        1.1415905E-17
   50.91200        1.1420873E-17
   51.07350        1.1424947E-17
   51.23500        1.1426769E-17
   51.39650        1.1426274E-17
   51.55800        1.1424855E-17
   51.71950        1.1424875E-17
   51.88100        1.1428655E-17
   52.04250        1.1437330E-17
   52.20400        1.1450127E-17
   52.36550        1.1464513E-17
   52.52700        1.1477269E-17
   52.68850        1.1485999E-17
   52.85000        1.1490272E-17
   53.01150        1.1491731E-17
   53.17300        1.1493102E-17
   53.33450        1.1496636E-17
   53.49600        1.1502846E-17
   53.65750        1.1510186E-17
   53.81900        1.1515817E-17
   53.98050        1.1517056E-17
   54.14200        1.1512767E-17
   54.30350        1.1504036E-17
   54.46500        1.1493790E-17
   54.62650        1.1485577E-17
   54.78800        1.1482109E-17
   54.94950        1.1484276E-17
   55.11100        1.1491015E-17
   55.27250        1.1500000E-17
   55.43400        1.1508746E-17
   55.59550        1.1515658E-17
   55.75700        1.1520649E-17
   55.91850        1.1525133E-17
   56.08000        1.1531350E-17
   56.24150        1.1541223E-17
   56.40300        1.1555190E-17
   56.56450        1.1571621E-17
   56.72600        1.1587224E-17
   56.88750        1.1598400E-17
   57.04900        1.1602946E-17
   57.21050        1.1601240E-17
   57.37200        1.1596262E-17
   57.53350        1.1592332E-17
   57.69500        1.1593117E-17
   57.85650        1.1599844E-17
   58.01800        1.1610666E-17
   58.17950        1.1621613E-17
   58.34100        1.1628722E-17
   58.50250        1.1630255E-17
   58.66400        1.1627748E-17
   58.82550        1.1625212E-17
   58.98700        1.1626918E-17
   59.14850        1.1634967E-17
   59.31000        1.1648011E-17
   59.47150        1.1661831E-17
   59.63300        1.1671451E-17
   59.79450        1.1673674E-17
   59.95600        1.1668723E-17
   60.11750        1.1660117E-17
   60.27900        1.1652830E-17
   60.44050        1.1650645E-17
   60.60200        1.1654170E-17
   60.76350        1.1660572E-17
   60.92500        1.1665269E-17
   61.08650        1.1664597E-17
   61.24800        1.1657995E-17
   61.40950        1.1648458E-17
   61.57100        1.1641060E-17
   61.73250        1.1640326E-17
   61.89400        1.1647874E-17
   62.05550        1.1661539E-17
   62.21700        1.1676429E-17
   62.37850        1.1687422E-17
   62.54000        1.1691803E-17
   62.70150        1.1690683E-17
   62.86300        1.1688387E-17
   63.02450        1.1690104E-17
   63.18600        1.1699047E-17
   63.34750        1.1714645E-17
   63.50900        1.1732719E-17
   63.67050        1.1747505E-17
   63.83200        1.1754471E-17
   63.99350        1.1752503E-17
   64.15500        1.1744424E-17
   64.31650        1.1735579E-17
   64.47800        1.1731168E-17
   64.63950        1.1733606E-17
   64.80100        1.1741261E-17
   64.96250        1.1749284E-17
   65.12400        1.1752202E-17
   65.28550        1.1746972E-17
   65.44700        1.1734900E-17
   65.60850        1.1721355E-17
   65.77000        1.1713346E-17
   65.93150        1.1716120E-17
   66.09300        1.1730504E-17
   66.25450        1.1752349E-17
   66.41600        1.1774485E-17
   66.57750        1.1790271E-17
   66.73900        1.1796930E-17
   66.90050        1.1796858E-17
   67.06200        1.1796081E-17
   67.22350        1.1800634E-17
   67.38500        1.1812867E-17
   67.54650        1.1829798E-17
   67.70800        1.1844503E-17
   67.86950        1.1849824E-17
   68.03100        1.1842354E-17
   68.19250        1.1824539E-17
   68.35400        1.1803709E-17
   68.51550        1.1788570E-17
   68.67700        1.1784943E-17
   68.83850        1.1793006E-17
   69.00000        1.1807455E-17
   69.16150        1.1820490E-17
   69.32300        1.1826021E-17
   69.48450        1.1822890E-17
   69.64600        1.1815464E-17
   69.80750        1.1811334E-17
   69.96900        1.1817364E-17
   70.13050        1.1836032E-17
   70.29200        1.1863874E-17
   70.45350        1.1892772E-17
   70.61500        1.1913585E-17
   70.77650        1.1920457E-17
   70.93800        1.1913790E-17
   71.09950        1.1900310E-17
   71.26100        1.1889955E-17
   71.42250        1.1890950E-17
   71.58400        1.1905486E-17
   71.74550        1.1928307E-17
   71.90700        1.1949177E-17
   72.06850        1.1958143E-17
   72.23000        1.1950933E-17
   72.39150        1.1931568E-17
   72.55300        1.1910627E-17
   72.71450        1.1899843E-17
   72.87600        1.1905843E-17
   73.03750        1.1926415E-17
   73.19900        1.1951492E-17
   73.36050        1.1968439E-17
   73.52200        1.1968816E-17
   73.68350        1.1952896E-17
   73.84500        1.1929476E-17
   74.00650        1.1911148E-17
   74.16800        1.1907664E-17
   74.32950        1.1921001E-17
   74.49100        1.1944609E-17
   74.65250        1.1967058E-17
   74.81400        1.1977971E-17
   74.97550        1.1973138E-17
   75.13700        1.1956296E-17
   75.29850        1.1936899E-17
   75.46000        1.1925179E-17
   75.62150        1.1927087E-17
   75.78300        1.1941540E-17
   75.94450        1.1961222E-17
   76.10600        1.1976383E-17
   76.26750        1.1979772E-17
   76.42900        1.1970324E-17
   76.59050        1.1953857E-17
   76.75200        1.1940360E-17
   76.91350        1.1939070E-17
   77.07500        1.1953651E-17
   77.23650        1.1979946E-17
   77.39800        1.2007648E-17
   77.55950        1.2025280E-17
   77.72100        1.2026062E-17
   77.88250        1.2011549E-17
   78.04400        1.1990945E-17
   78.20550        1.1976281E-17
   78.36700        1.1975953E-17
   78.52850        1.1990095E-17
   78.69000        1.2010408E-17
   78.85150        1.2024632E-17
   79.01300        1.2023326E-17
   79.17450        1.2005273E-17
   79.33600        1.1978535E-17
   79.49750        1.1956531E-17
   79.65900        1.1951230E-17
   79.82050        1.1967093E-17
   79.98200        1.1998967E-17
   80.14350        1.2034905E-17
   80.30500        1.2062311E-17
   80.46650        1.2074132E-17
   80.62800        1.2071980E-17
   80.78950        1.2064781E-17
   80.95100        1.2063837E-17
   81.11250        1.2076873E-17
   81.27400        1.2104012E-17
   81.43550        1.2137597E-17
   81.59700        1.2165856E-17
   81.75850        1.2178626E-17
   81.92000        1.2172350E-17
   82.08150        1.2151901E-17
   82.24300        1.2128353E-17
   82.40450        1.2113712E-17
   82.56600        1.2115149E-17
   82.72750        1.2131578E-17
   82.88900        1.2154307E-17
   83.05050        1.2171567E-17
   83.21200        1.2174677E-17
   83.37350        1.2162696E-17
   83.53500        1.2143060E-17
   83.69650        1.2127714E-17
   83.85800        1.2126712E-17
   84.01950        1.2142705E-17
   84.18100        1.2169362E-17
   84.34250        1.2194661E-17
   84.50400        1.2207295E-17
   84.66550        1.2202704E-17
   84.82700        1.2185428E-17
   84.98850        1.2166531E-17
   85.15000        1.2157539E-17
   85.31150        1.2164234E-17
   85.47300        1.2183628E-17
   85.63450        1.2205676E-17
   85.79600        1.2218659E-17
   85.95750        1.2215266E-17
   86.11900        1.2196157E-17
   86.28050        1.2169285E-17
   86.44200        1.2145598E-17
   86.60350        1.2133535E-17
   86.76500        1.2135176E-17
   86.92650        1.2145787E-17
   87.08800        1.2156714E-17
   87.24950        1.2159928E-17
   87.41100        1.2151982E-17
   87.57250        1.2135572E-17
   87.73400        1.2118136E-17
   87.89550        1.2108278E-17
   88.05700        1.2111689E-17
   88.21850        1.2128450E-17
   88.38000        1.2152922E-17
   88.54150        1.2176319E-17
   88.70300        1.2190769E-17
   88.86450        1.2193003E-17
   89.02600        1.2185868E-17
   89.18750        1.2176856E-17
   89.34900        1.2174292E-17
   89.51050        1.2183019E-17
   89.67200        1.2201803E-17
   89.83350        1.2223885E-17
   89.99500        1.2240476E-17
   90.15650        1.2245424E-17
   90.31800        1.2238546E-17
   90.47950        1.2225817E-17
   90.64100        1.2216294E-17
   90.80250        1.2217429E-17
   90.96400        1.2231311E-17
   91.12550        1.2253786E-17
   91.28700        1.2276789E-17
   91.44850        1.2292531E-17
   91.61000        1.2297256E-17
   91.77150        1.2292700E-17
   91.93300        1.2284684E-17
   92.09450        1.2279819E-17
   92.25600        1.2282119E-17
   92.41750        1.2291251E-17
   92.57900        1.2303115E-17
   92.74050        1.2312244E-17
   92.90200        1.2314682E-17
   93.06350        1.2309891E-17
   93.22500        1.2300879E-17
   93.38650        1.2292638E-17
   93.54800        1.2289744E-17
   93.70950        1.2294267E-17
   93.87100        1.2304912E-17
   94.03250        1.2317719E-17
   94.19400        1.2327965E-17
   94.35550        1.2332386E-17
   94.51700        1.2330695E-17
   94.67850        1.2325655E-17
   94.84000        1.2321689E-17
   95.00150        1.2322634E-17
   95.16300        1.2329783E-17
   95.32450        1.2341140E-17
   95.48600        1.2352335E-17
   95.64750        1.2358726E-17
   95.80900        1.2357692E-17
   95.97050        1.2349977E-17
   96.13200        1.2339418E-17
   96.29350        1.2331149E-17
   96.45500        1.2329141E-17
   96.61650        1.2334285E-17
   96.77800        1.2343957E-17
   96.93950        1.2353328E-17
   97.10100        1.2357767E-17
   97.26250        1.2355165E-17
   97.42400        1.2347028E-17
   97.58550        1.2337803E-17
   97.74700        1.2332768E-17
   97.90850        1.2335521E-17
   98.07000        1.2346270E-17
   98.23150        1.2361753E-17
   98.39300        1.2376805E-17
   98.55450        1.2386844E-17
   98.71600        1.2390044E-17
   98.87750        1.2388167E-17
   99.03900        1.2385628E-17
   99.20050        1.2387244E-17
   99.36200        1.2395753E-17
   99.52350        1.2410328E-17
   99.68500        1.2426781E-17
   99.84650        1.2439412E-17
   100.0080        1.2443648E-17
   100.1695        1.2438256E-17
   100.3310        1.2426096E-17
   100.4925        1.2412964E-17
   100.6540        1.2405008E-17
   100.8155        1.2405828E-17
   100.9770        1.2414704E-17
   101.1385        1.2426881E-17
   101.3000        1.2435906E-17
   101.4615        1.2436947E-17
   101.6230        1.2429419E-17
   101.7845        1.2417528E-17
   101.9460        1.2408336E-17
   102.1075        1.2408232E-17
   102.2690        1.2419578E-17
   102.4305        1.2439300E-17
   102.5920        1.2460234E-17
   102.7535        1.2474629E-17
   102.9150        1.2478026E-17
   103.0765        1.2471483E-17
   103.2380        1.2460922E-17
   103.3995        1.2453952E-17
   103.5610        1.2455835E-17
   103.7225        1.2466743E-17
   103.8840        1.2481716E-17
   104.0455        1.2493306E-17
   104.2070        1.2495462E-17
   104.3685        1.2486678E-17
   104.5300        1.2470791E-17
   104.6915        1.2455108E-17
   104.8530        1.2446812E-17
   105.0145        1.2449455E-17
   105.1760        1.2461270E-17
   105.3375        1.2476126E-17
   105.4990        1.2486632E-17
   105.6605        1.2487817E-17
   105.8220        1.2479560E-17
   105.9835        1.2466580E-17
   106.1450        1.2456012E-17
   106.3065        1.2453806E-17
   106.4680        1.2461772E-17
   106.6295        1.2476718E-17
   106.7910        1.2492133E-17
   106.9525        1.2501524E-17
   107.1140        1.2501681E-17
   107.2755        1.2494173E-17
   107.4370        1.2484331E-17
   107.5985        1.2478341E-17
   107.7600        1.2480078E-17
   107.9215        1.2489378E-17
   108.0830        1.2502562E-17
   108.2445        1.2514708E-17
   108.4060        1.2522294E-17
   108.5675        1.2524761E-17
   108.7290        1.2524339E-17
   108.8905        1.2524456E-17
   109.0520        1.2527781E-17
   109.2135        1.2534985E-17
   109.3750        1.2544718E-17
   109.5365        1.2554615E-17
   109.6980        1.2562590E-17
   109.8595        1.2567709E-17
   110.0210        1.2570297E-17
   110.1825        1.2571453E-17
   110.3440        1.2572390E-17
   110.5055        1.2573950E-17
   110.6670        1.2576421E-17
   110.8285        1.2579582E-17
   110.9900        1.2582895E-17
   111.1515        1.2585780E-17
   111.3130        1.2587900E-17
   111.4745        1.2589319E-17
   111.6360        1.2590425E-17
   111.7975        1.2591628E-17
   111.9590        1.2593043E-17
   112.1205        1.2594442E-17
   112.2820        1.2595526E-17
   112.4435        1.2596344E-17
   112.6050        1.2597508E-17
   112.7665        1.2599947E-17
   112.9280        1.2604277E-17
   113.0895        1.2610210E-17
   113.2510        1.2616450E-17
   113.4125        1.2621327E-17
   113.5740        1.2623872E-17
   113.7355        1.2624632E-17
   113.8970        1.2625543E-17
   114.0585        1.2628756E-17
   114.2200        1.2635032E-17
   114.3815        1.2642815E-17
   114.5430        1.2648737E-17
   114.7045        1.2649455E-17
   114.8660        1.2643728E-17
   115.0275        1.2633424E-17
   115.1890        1.2622731E-17
   115.3505        1.2615926E-17
   115.5120        1.2615014E-17
   115.6735        1.2618628E-17
   115.8350        1.2622910E-17
   115.9965        1.2623883E-17
   116.1580        1.2619955E-17
   116.3195        1.2613053E-17
   116.4810        1.2607642E-17
   116.6425        1.2608147E-17
   116.8040        1.2616259E-17
   116.9655        1.2629691E-17
   117.1270        1.2643160E-17
   117.2885        1.2651041E-17
   117.4500        1.2650269E-17
   117.6115        1.2641910E-17
   117.7730        1.2630590E-17
   117.9345        1.2622089E-17
   118.0960        1.2620361E-17
   118.2575        1.2625490E-17
   118.4190        1.2633678E-17
   118.5805        1.2639292E-17
   118.7420        1.2637960E-17