  -27.90000       -3.5993580E-19
  -27.73850       -3.6080993E-19
  -27.57700       -3.6218667E-19
  -27.41550       -3.6352915E-19
  -27.25400       -3.6440054E-19
  -27.09250       -3.6466526E-19
  -26.93100       -3.6452875E-19
  -26.76950       -3.6440790E-19
  -26.60800       -3.6470915E-19
  -26.44650       -3.6563454E-19
  -26.28500       -3.6709797E-19
  -26.12350       -3.6877798E-19
  -25.96200       -3.7026303E-19
  -25.80050       -3.7122155E-19
  -25.63900       -3.7152528E-19
  -25.47750       -3.7129199E-19
  -25.31600       -3.7083848E-19
  -25.15450       -3.7056089E-19
  -24.99300       -3.7078712E-19
  -24.83150       -3.7163922E-19
  -24.67000       -3.7297359E-19
  -24.50850       -3.7442429E-19
  -24.34700       -3.7555078E-19
  -24.18550       -3.7603574E-19
  -24.02400       -3.7584246E-19
  -23.86250       -3.7524808E-19
  -23.70100       -3.7472538E-19
  -23.53950       -3.7472546E-19
  -23.37800       -3.7545821E-19
  -23.21650       -3.7678938E-19
  -23.05500       -3.7830100E-19
  -22.89350       -3.7948958E-19
  -22.73200       -3.8000390E-19
  -22.57050       -3.7980776E-19
  -22.40900       -3.7919218E-19
  -22.24750       -3.7863371E-19
  -22.08600       -3.7857019E-19
  -21.92450       -3.7920337E-19
  -21.76300       -3.8041232E-19
  -21.60150       -3.8181995E-19
  -21.44000       -3.8296480E-19
  -21.27850       -3.8350508E-19
  -21.11700       -3.8336420E-19
  -20.95550       -3.8275609E-19
  -20.79400       -3.8208775E-19
  -20.63250       -3.8178128E-19
  -20.47100       -3.8209590E-19
  -20.30950       -3.8302185E-19
  -20.14800       -3.8428955E-19
  -19.98650       -3.8549155E-19
  -19.82500       -3.8625910E-19
  -19.66350       -3.8641784E-19
  -19.50200       -3.8606290E-19
  -19.34050       -3.8551414E-19
  -19.17900       -3.8517712E-19
  -19.01750       -3.8536096E-19
  -18.85600       -3.8613287E-19
  -18.69450       -3.8727580E-19
  -18.53300       -3.8837792E-19
  -18.37150       -3.8902072E-19
  -18.21000       -3.8898706E-19
  -18.04850       -3.8838123E-19
  -17.88700       -3.8759616E-19
  -17.72550       -3.8713821E-19
  -17.56400       -3.8737998E-19
  -17.40250       -3.8837758E-19
  -17.24100       -3.8983339E-19
  -17.07950       -3.9123834E-19
  -16.91800       -3.9211758E-19
  -16.75650       -3.9225391E-19
  -16.59500       -3.9178497E-19
  -16.43350       -3.9112212E-19
  -16.27200       -3.9074117E-19
  -16.11050       -3.9095242E-19
  -15.94900       -3.9176442E-19
  -15.78750       -3.9289634E-19
  -15.62600       -3.9391933E-19
  -15.46450       -3.9445108E-19
  -15.30300       -3.9431591E-19
  -15.14150       -3.9361475E-19
  -14.98000       -3.9268774E-19
  -14.81850       -3.9198823E-19
  -14.65700       -3.9190768E-19
  -14.49550       -3.9260140E-19
  -14.33400       -3.9389105E-19
  -14.17250       -3.9530680E-19
  -14.01100       -3.9627103E-19
  -13.84950       -3.9637246E-19
  -13.68800       -3.9560220E-19
  -13.52650       -3.9441753E-19
  -13.36500       -3.9356812E-19
  -13.20350       -3.9373541E-19
  -13.04200       -3.9515589E-19
  -12.88050       -3.9743180E-19
  -12.71900       -3.9966984E-19
  -12.55750       -4.0090684E-19
  -12.39600       -4.0062112E-19
  -12.23450       -3.9904775E-19
  -12.07300       -3.9710912E-19
  -11.91150       -3.9596430E-19
  -11.75000       -3.9641134E-19
  -11.58850       -3.9845554E-19
  -11.42700       -4.0128325E-19
  -11.26550       -4.0365788E-19
  -11.10400       -4.0453322E-19
  -10.94250       -4.0357106E-19
  -10.78100       -4.0130401E-19
  -10.61950       -3.9886825E-19
  -10.45800       -3.9745760E-19
  -10.29650       -3.9776202E-19
  -10.13500       -3.9966674E-19
  -9.973500       -4.0232969E-19
  -9.812000       -4.0458593E-19
  -9.650500       -4.0547280E-19
  -9.489000       -4.0465166E-19
  -9.327500       -4.0255099E-19
  -9.166000       -4.0019631E-19
  -9.004500       -3.9878814E-19
  -8.843000       -3.9919178E-19
  -8.681500       -4.0153164E-19
  -8.520000       -4.0506776E-19
  -8.358500       -4.0845199E-19
  -8.197000       -4.1030123E-19
  -8.035500       -4.0985812E-19
  -7.874000       -4.0742990E-19
  -7.712500       -4.0434437E-19
  -7.551000       -4.0238452E-19
  -7.389500       -4.0292074E-19
  -7.228000       -4.0616321E-19
  -7.066500       -4.1094633E-19
  -6.905000       -4.1520850E-19
  -6.743500       -4.1699069E-19
  -6.582000       -4.1545224E-19
  -6.420500       -4.1135325E-19
  -6.259000       -4.0672111E-19
  -6.097500       -4.0383681E-19
  -5.936000       -4.0406380E-19
  -5.774500       -4.0715665E-19
  -5.613000       -4.1140580E-19
  -5.451500       -4.1454089E-19
  -5.290000       -4.1490377E-19
  -5.128500       -4.1227318E-19
  -4.967000       -4.0793823E-19
  -4.805500       -4.0401610E-19
  -4.644000       -4.0238994E-19
  -4.482500       -4.0381249E-19
  -4.321000       -4.0759074E-19
  -4.159500       -4.1196712E-19
  -3.998000       -4.1496407E-19
  -3.836500       -4.1527838E-19
  -3.675000       -4.1282961E-19
  -3.513500       -4.0875425E-19
  -3.352000       -4.0488697E-19
  -3.190500       -4.0296641E-19
  -3.029000       -4.0388210E-19
  -2.867500       -4.0726744E-19
  -2.706000       -4.1161805E-19
  -2.544500       -4.1491922E-19
  -2.383000       -4.1555595E-19
  -2.221500       -4.1310426E-19
  -2.060000       -4.0861944E-19
  -1.898500       -4.0421726E-19
  -1.737000       -4.0209542E-19
  -1.575500       -4.0343573E-19
  -1.414000       -4.0775581E-19
  -1.252500       -4.1307135E-19
  -1.091000       -4.1684842E-19
 -0.9295000       -4.1729140E-19
 -0.7680000       -4.1429739E-19
 -0.6065000       -4.0956057E-19
 -0.4450000       -4.0573160E-19
 -0.2835000       -4.0505406E-19
 -0.1220000       -4.0820288E-19
  3.9500002E-02   -4.1394786E-19
  0.2010000       -4.1981737E-19
  0.3625000       -4.2339961E-19
  0.5240000       -4.2357557E-19
  0.6855000       -4.2104457E-19
  0.8470000       -4.1789203E-19
   1.008500       -4.1647308E-19
   1.170000       -4.1820902E-19
   1.331500       -4.2290780E-19
   1.493000       -4.2890809E-19
   1.654500       -4.3392204E-19
   1.816000       -4.3612565E-19
   1.977500       -4.3495457E-19
   2.139000       -4.3127152E-19
   2.300500       -4.2688364E-19
   2.462000       -4.2369142E-19
   2.623500       -4.2286135E-19
   2.785000       -4.2436697E-19
   2.946500       -4.2705399E-19
   3.108000       -4.2918494E-19
   3.269500       -4.2923007E-19
   3.431000       -4.2659547E-19
   3.592500       -4.2195995E-19
   3.754000       -4.1703846E-19
   3.915500       -4.1382497E-19
   4.077000       -4.1363417E-19
   4.238500       -4.1639442E-19
   4.400000       -4.2059472E-19
   4.561500       -4.2397933E-19
   4.723000       -4.2468727E-19
   4.884500       -4.2227100E-19
   5.046000       -4.1801983E-19
   5.207500       -4.1435752E-19
   5.369000       -4.1357725E-19
   5.530500       -4.1657017E-19
   5.692000       -4.2226446E-19
   5.853500       -4.2811332E-19
   6.015000       -4.3140103E-19
   6.176500       -4.3065892E-19
   6.338000       -4.2642029E-19
   6.499500       -4.2090786E-19
   6.661000       -4.1683699E-19
   6.822500       -4.1600707E-19
   6.984000       -4.1841905E-19
   7.145500       -4.2236313E-19
   7.307000       -4.2536734E-19
   7.468500       -4.2548651E-19
   7.630000       -4.2225960E-19
   7.791500       -4.1690218E-19
   7.953000       -4.1169069E-19
   8.114500       -4.0889469E-19
   8.276000       -4.0976966E-19
   8.437500       -4.1404412E-19
   8.599000       -4.2007755E-19
   8.760500       -4.2558991E-19
   8.922000       -4.2864654E-19
   9.083500       -4.2850590E-19
   9.245000       -4.2597121E-19
   9.406500       -4.2307541E-19
   9.568000       -4.2216807E-19
   9.729500       -4.2476916E-19
   9.891000       -4.3072680E-19
   10.05250       -4.3812376E-19
   10.21400       -4.4407786E-19
   10.37550       -4.4610802E-19
   10.53700       -4.4341756E-19
   10.69850       -4.3740520E-19
   10.86000       -4.3108693E-19
   11.02150       -4.2764656E-19
   11.18300       -4.2884429E-19
   11.34450       -4.3410521E-19
   11.50600       -4.4079018E-19
   11.66750       -4.4554000E-19
   11.82900       -4.4599423E-19
   11.99050       -4.4198297E-19
   12.15200       -4.3557920E-19
   12.31350       -4.3000191E-19
   12.47500       -4.2796867E-19
   12.63650       -4.3035431E-19
   12.79800       -4.3581944E-19
   12.95950       -4.4154002E-19
   13.12100       -4.4462757E-19
   13.28250       -4.4351160E-19
   13.44400       -4.3862855E-19
   13.60550       -4.3213469E-19
   13.76700       -4.2683567E-19
   13.92850       -4.2487222E-19
   14.09000       -4.2678298E-19
   14.25150       -4.3133354E-19
   14.41300       -4.3615616E-19
   14.57450       -4.3885721E-19
   14.73600       -4.3809931E-19
   14.89750       -4.3418281E-19
   15.05900       -4.2889387E-19
   15.22050       -4.2468885E-19
   15.38200       -4.2358128E-19
   15.54350       -4.2621611E-19
   15.70500       -4.3156218E-19
   15.86650       -4.3738007E-19
   16.02800       -4.4126787E-19
   16.18950       -4.4180497E-19
   16.35100       -4.3923363E-19
   16.51250       -4.3534738E-19
   16.67400       -4.3261481E-19
   16.83550       -4.3296474E-19
   16.99700       -4.3682503E-19
   17.15850       -4.4289757E-19
   17.32000       -4.4879687E-19
   17.48150       -4.5223117E-19
   17.64300       -4.5213336E-19
   17.80450       -4.4916429E-19
   17.96600       -4.4533569E-19
   18.12750       -4.4295729E-19
   18.28900       -4.4346486E-19
   18.45050       -4.4672566E-19
   18.61200       -4.5116219E-19
   18.77350       -4.5459132E-19
   18.93500       -4.5532467E-19
   19.09650       -4.5298106E-19
   19.25800       -4.4862668E-19
   19.41950       -4.4421553E-19
   19.58100       -4.4163349E-19
   19.74250       -4.4182208E-19
   19.90400       -4.4437931E-19
   20.06550       -4.4780792E-19
   20.22700       -4.5025902E-19
   20.38850       -4.5039896E-19
   20.55000       -4.4800211E-19
   20.71150       -4.4400667E-19
   20.87300       -4.4003682E-19
   21.03450       -4.3762621E-19
   21.19600       -4.3750906E-19
   21.35750       -4.3929350E-19
   21.51900       -4.4167872E-19
   21.68050       -4.4311331E-19
   21.84200       -4.4258381E-19
   22.00350       -4.4014751E-19
   22.16500       -4.3692745E-19
   22.32650       -4.3456435E-19
   22.48800       -4.3439069E-19
   22.64950       -4.3674542E-19
   22.81100       -4.4078330E-19
   22.97250       -4.4487893E-19
   23.13400       -4.4741868E-19
   23.29550       -4.4758448E-19
   23.45700       -4.4574204E-19
   23.61850       -4.4323574E-19
   23.78000       -4.4169677E-19
   23.94150       -4.4220941E-19
   24.10300       -4.4475671E-19
   24.26450       -4.4823496E-19
   24.42600       -4.5103124E-19
   24.58750       -4.5186762E-19
   24.74900       -4.5047217E-19
   24.91050       -4.4773110E-19
   25.07200       -4.4525240E-19
   25.23350       -4.4455897E-19
   25.39500       -4.4632417E-19
   25.55650       -4.5003299E-19
   25.71800       -4.5423941E-19
   25.87950       -4.5728369E-19
   26.04100       -4.5811889E-19
   26.20250       -4.5681494E-19
   26.36400       -4.5449351E-19
   26.52550       -4.5272624E-19
   26.68700       -4.5272345E-19
   26.84850       -4.5472667E-19
   27.01000       -4.5790992E-19
   27.17150       -4.6080242E-19
   27.33300       -4.6201010E-19
   27.49450       -4.6087898E-19
   27.65600       -4.5779753E-19
   27.81750       -4.5402481E-19
   27.97900       -4.5112580E-19
   28.14050       -4.5027515E-19
   28.30200       -4.5173352E-19
   28.46350       -4.5472770E-19
   28.62500       -4.5780404E-19
   28.78650       -4.5949811E-19
   28.94800       -4.5902687E-19
   29.10950       -4.5667173E-19
   29.27100       -4.5366917E-19
   29.43250       -4.5163219E-19
   29.59400       -4.5176324E-19
   29.75550       -4.5423817E-19
   29.91700       -4.5807748E-19
   30.07850       -4.6160649E-19
   30.24000       -4.6329063E-19
   30.40150       -4.6252672E-19
   30.56300       -4.5996045E-19
   30.72450       -4.5715093E-19
   30.88600       -4.5576090E-19
   31.04750       -4.5670224E-19
   31.20900       -4.5969146E-19
   31.37050       -4.6341920E-19
   31.53200       -4.6621864E-19
   31.69350       -4.6686430E-19
   31.85500       -4.6511440E-19
   32.01650       -4.6175936E-19
   32.17800       -4.5821029E-19
   32.33950       -4.5584450E-19
   32.50100       -4.5543546E-19
   32.66250       -4.5688990E-19
   32.82400       -4.5937486E-19
   32.98550       -4.6173594E-19
   33.14700       -4.6300649E-19
   33.30850       -4.6280068E-19
   33.47000       -4.6145351E-19
   33.63150       -4.5986517E-19
   33.79300       -4.5910757E-19
   33.95450       -4.5992891E-19
   34.11600       -4.6237059E-19
   34.27750       -4.6567306E-19
   34.43900       -4.6857300E-19
   34.60050       -4.6987111E-19
   34.76200       -4.6902454E-19
   34.92350       -4.6644368E-19
   35.08500       -4.6332221E-19
   35.24650       -4.6106510E-19
   35.40800       -4.6059510E-19
   35.56950       -4.6189067E-19
   35.73100       -4.6399978E-19
   35.89250       -4.6553849E-19
   36.05400       -4.6542744E-19
   36.21550       -4.6348972E-19
   36.37700       -4.6058911E-19
   36.53850       -4.5821262E-19
   36.70000       -4.5770390E-19
   36.86150       -4.5954738E-19
   37.02300       -4.6308559E-19
   37.18450       -4.6682693E-19
   37.34600       -4.6918227E-19
   37.50750       -4.6924690E-19
   37.66900       -4.6724021E-19
   37.83050       -4.6438731E-19
   37.99200       -4.6231295E-19
   38.15350       -4.6224884E-19
   38.31500       -4.6443875E-19
   38.47650       -4.6803104E-19
   38.63800       -4.7150872E-19
   38.79950       -4.7344654E-19
   38.96100       -4.7321173E-19
   39.12250       -4.7126739E-19
   39.28400       -4.6892031E-19
   39.44550       -4.6764408E-19
   39.60700       -4.6831141E-19
   39.76850       -4.7070780E-19
   39.93000       -4.7357879E-19
   40.09150       -4.7521226E-19
   40.25300       -4.7430448E-19
   40.41450       -4.7069157E-19
   40.57600       -4.6556460E-19
   40.73750       -4.6099722E-19
   40.89900       -4.5896969E-19
   41.06050       -4.6036871E-19
   41.22200       -4.6450591E-19
   41.38350       -4.6944506E-19
   41.54500       -4.7300374E-19
   41.70650       -4.7390739E-19
   41.86800       -4.7246882E-19
   42.02950       -4.7040970E-19
   42.19100       -4.6989752E-19
   42.35250       -4.7230286E-19
   42.51400       -4.7735683E-19
   42.67550       -4.8318716E-19
   42.83700       -4.8724164E-19
   42.99850       -4.8761801E-19
   43.16000       -4.8408398E-19
   43.32150       -4.7822201E-19
   43.48300       -4.7262334E-19
   43.64450       -4.6955993E-19
   43.80600       -4.6984655E-19
   43.96750       -4.7247088E-19
   44.12900       -4.7515819E-19
   44.29050       -4.7556392E-19
   44.45200       -4.7248924E-19
   44.61350       -4.6652237E-19
   44.77500       -4.5979780E-19
   44.93650       -4.5498263E-19
   45.09800       -4.5398107E-19
   45.25950       -4.5699258E-19
   45.42100       -4.6239955E-19
   45.58250       -4.6756663E-19
   45.74400       -4.7015829E-19
   45.90550       -4.6931746E-19
   46.06700       -4.6610852E-19
   46.22850       -4.6299160E-19
   46.39000       -4.6258349E-19
   46.55150       -4.6631609E-19
   46.71300       -4.7367241E-19
   46.87450       -4.8240062E-19
   47.03600       -4.8960784E-19
   47.19750       -4.9317795E-19
   47.35900       -4.9278132E-19
   47.52050       -4.8994730E-19
   47.68200       -4.8718560E-19
   47.84350       -4.8663496E-19
   48.00500       -4.8896786E-19
   48.16650       -4.9309322E-19
   48.32800       -4.9677319E-19
   48.48950       -4.9779424E-19
   48.65100       -4.9508978E-19
   48.81250       -4.8927614E-19
   48.97400       -4.8236371E-19
   49.13550       -4.7682366E-19
   49.29700       -4.7446092E-19
   49.45850       -4.7564741E-19
   49.62000       -4.7924880E-19
   49.78150       -4.8325272E-19
   49.94300       -4.8574936E-19
   50.10450       -4.8578446E-19
   50.26600       -4.8369831E-19
   50.42750       -4.8083513E-19
   50.58900       -4.7881257E-19
   50.75050       -4.7871610E-19
   50.91200       -4.8059938E-19
   51.07350       -4.8350335E-19
   51.23500       -4.8596468E-19
   51.39650       -4.8674626E-19
   51.55800       -4.8542443E-19
   51.71950       -4.8255747E-19
   51.88100       -4.7937970E-19
   52.04250       -4.7721316E-19
   52.20400       -4.7689154E-19
   52.36550       -4.7844861E-19
   52.52700       -4.8117096E-19
   52.68850       -4.8394062E-19
   52.85000       -4.8571136E-19
   53.01150       -4.8592617E-19
   53.17300       -4.8471099E-19
   53.33450       -4.8277673E-19
   53.49600       -4.8107341E-19
   53.65750       -4.8034192E-19
   53.81900       -4.8077459E-19
   53.98050       -4.8193383E-19
   54.14200       -4.8296238E-19
   54.30350       -4.8299086E-19
   54.46500       -4.8155989E-19
   54.62650       -4.7886649E-19
   54.78800       -4.7571850E-19
   54.94950       -4.7320227E-19
   55.11100       -4.7220717E-19
   55.27250       -4.7303559E-19
   55.43400       -4.7528702E-19
   55.59550       -4.7807503E-19
   55.75700       -4.8044997E-19
   55.91850       -4.8182356E-19
   56.08000       -4.8219574E-19
   56.24150       -4.8210754E-19
   56.40300       -4.8236800E-19
   56.56450       -4.8366894E-19
   56.72600       -4.8624442E-19
   56.88750       -4.8970741E-19
   57.04900       -4.9314905E-19
   57.21050       -4.9549680E-19
   57.37200       -4.9599606E-19
   57.53350       -4.9459765E-19
   57.69500       -4.9205511E-19
   57.85650       -4.8964248E-19
   58.01800       -4.8858415E-19
   58.17950       -4.8944055E-19
   58.34100       -4.9174972E-19
   58.50250       -4.9414255E-19
   58.66400       -4.9494853E-19
   58.82550       -4.9304374E-19
   58.98700       -4.8852036E-19
   59.14850       -4.8279487E-19
   59.31000       -4.7802168E-19
   59.47150       -4.7606881E-19
   59.63300       -4.7757143E-19
   59.79450       -4.8157333E-19
   59.95600       -4.8597580E-19
   60.11750       -4.8859439E-19
   60.27900       -4.8830209E-19
   60.44050       -4.8567114E-19
   60.60200       -4.8275713E-19
   60.76350       -4.8208717E-19
   60.92500       -4.8533070E-19
   61.08650       -4.9233583E-19
   61.24800       -5.0104604E-19
   61.40950       -5.0839875E-19
   61.57100       -5.1177551E-19
   61.73250       -5.1028679E-19
   61.89400       -5.0522791E-19
   62.05550       -4.9945998E-19
   62.21700       -4.9600004E-19
   62.37850       -4.9651103E-19
   62.54000       -5.0043858E-19
   62.70150       -5.0525086E-19
   62.86300       -5.0770237E-19
   63.02450       -5.0551592E-19
   63.18600       -4.9863921E-19
   63.34750       -4.8940461E-19
   63.50900       -4.8146637E-19
   63.67050       -4.7801977E-19
   63.83200       -4.8019535E-19
   63.99350       -4.8645716E-19
   64.15500       -4.9332798E-19
   64.31650       -4.9709197E-19
   64.47800       -4.9563923E-19
   64.63950       -4.8952461E-19
   64.80100       -4.8168940E-19
   64.96250       -4.7596738E-19
   65.12400       -4.7511579E-19
   65.28550       -4.7937526E-19
   65.44700       -4.8631561E-19
   65.60850       -4.9207243E-19
   65.77000       -4.9335952E-19
   65.93150       -4.8922910E-19
   66.09300       -4.8166008E-19
   66.25450       -4.7465816E-19
   66.41600       -4.7228565E-19
   66.57750       -4.7659097E-19
   66.73900       -4.8648513E-19
   66.90050       -4.9816187E-19
   67.06200       -5.0690621E-19
   67.22350       -5.0940786E-19
   67.38500       -5.0542757E-19
   67.54650       -4.9792080E-19
   67.70800       -4.9152638E-19
   67.86950       -4.9016143E-19
   68.03100       -4.9495722E-19
   68.19250       -5.0362499E-19
   68.35400       -5.1160289E-19
   68.51550       -5.1442042E-19
   68.67700       -5.1007095E-19
   68.83850       -5.0015584E-19
   69.00000       -4.8917967E-19
   69.16150       -4.8232659E-19
   69.32300       -4.8284166E-19
   69.48450       -4.9036244E-19
   69.64600       -5.0106574E-19
   69.80750       -5.0956709E-19
   69.96900       -5.1160009E-19
   70.13050       -5.0613693E-19
   70.29200       -4.9588888E-19
   70.45350       -4.8595201E-19
   70.61500       -4.8128610E-19
   70.77650       -4.8425366E-19
   70.93800       -4.9342694E-19
   71.09950       -5.0425426E-19
   71.26100       -5.1128582E-19
   71.42250       -5.1089632E-19
   71.58400       -5.0316585E-19
   71.74550       -4.9195125E-19
   71.90700       -4.8304644E-19
   72.06850       -4.8129478E-19
   72.23000       -4.8808288E-19
   72.39150       -5.0052275E-19
   72.55300       -5.1280271E-19
   72.71450       -5.1908411E-19
   72.87600       -5.1648935E-19
   73.03750       -5.0661137E-19
   73.19900       -4.9471253E-19
   73.36050       -4.8699312E-19
   73.52200       -4.8735000E-19
   73.68350       -4.9536362E-19
   73.84500       -5.0658810E-19
   74.00650       -5.1497664E-19
   74.16800       -5.1612684E-19
   74.32950       -5.0958410E-19
   74.49100       -4.9901563E-19
   74.65250       -4.9021065E-19
   74.81400       -4.8803589E-19
   74.97550       -4.9394703E-19
   75.13700       -5.0530520E-19
   75.29850       -5.1677028E-19
   75.46000       -5.2297765E-19
   75.62150       -5.2112606E-19
   75.78300       -5.1223113E-19
   75.94450       -5.0049359E-19
   76.10600       -4.9117308E-19
   76.26750       -4.8802483E-19
   76.42900       -4.9153466E-19
   76.59050       -4.9877228E-19
   76.75200       -5.0492506E-19
   76.91350       -5.0578233E-19
   77.07500       -4.9996714E-19
   77.23650       -4.8978662E-19
   77.39800       -4.8020523E-19
   77.55950       -4.7636163E-19
   77.72100       -4.8085162E-19
   77.88250       -4.9220545E-19
   78.04400       -5.0544391E-19
   78.20550       -5.1453167E-19
   78.36700       -5.1549043E-19
   78.52850       -5.0850515E-19
   78.69000       -4.9785814E-19
   78.85150       -4.8966363E-19
   79.01300       -4.8861011E-19
   79.17450       -4.9546862E-19
   79.33600       -5.0672236E-19
   79.49750       -5.1650140E-19
   79.65900       -5.1974653E-19
   79.82050       -5.1486756E-19
   79.98200       -5.0449110E-19
   80.14350       -4.9396191E-19
   80.30500       -4.8849896E-19
   80.46650       -4.9054328E-19
   80.62800       -4.9866175E-19
   80.78950       -5.0845676E-19
   80.95100       -5.1489062E-19
   81.11250       -5.1477879E-19
   81.27400       -5.0822664E-19
   81.43550       -4.9841540E-19
   81.59700       -4.8993918E-19
   81.75850       -4.8657581E-19
   81.92000       -4.8955154E-19
   82.08150       -4.9706736E-19
   82.24300       -5.0525309E-19
   82.40450       -5.1008134E-19
   82.56600       -5.0933233E-19
   82.72750       -5.0370274E-19
   82.88900       -4.9650927E-19
   83.05050       -4.9208985E-19
   83.21200       -4.9363601E-19
   83.37350       -5.0152028E-19
   83.53500       -5.1299741E-19
   83.69650       -5.2350834E-19
   83.85800       -5.2895465E-19
   84.01950       -5.2776341E-19
   84.18100       -5.2163074E-19
   84.34250       -5.1451870E-19
   84.50400       -5.1046458E-19
   84.66550       -5.1140669E-19
   84.82700       -5.1623153E-19
   84.98850       -5.2153143E-19
   85.15000       -5.2360062E-19
   85.31150       -5.2051022E-19
   85.47300       -5.1311135E-19
   85.63450       -5.0446752E-19
   85.79600       -4.9813034E-19
   85.95750       -4.9628903E-19
   86.11900       -4.9879477E-19
   86.28050       -5.0348297E-19
   86.44200       -5.0744703E-19
   86.60350       -5.0846973E-19
   86.76500       -5.0589529E-19
   86.92650       -5.0066006E-19
   87.08800       -4.9467665E-19
   87.24950       -4.8998891E-19
   87.41100       -4.8805672E-19
   87.57250       -4.8932893E-19
   87.73400       -4.9314218E-19
   87.89550       -4.9794448E-19
   88.05700       -5.0183900E-19
   88.21850       -5.0334509E-19
   88.38000       -5.0211792E-19
   88.54150       -4.9925897E-19
   88.70300       -4.9693832E-19
   88.86450       -4.9736571E-19
   89.02600       -5.0157053E-19
   89.18750       -5.0866278E-19
   89.34900       -5.1608253E-19
   89.51050       -5.2082486E-19
   89.67200       -5.2101744E-19
   89.83350       -5.1695821E-19
   89.99500       -5.1100158E-19
   90.15650       -5.0632630E-19
   90.31800       -5.0528488E-19
   90.47950       -5.0823037E-19
   90.64100       -5.1342615E-19
   90.80250       -5.1800997E-19
   90.96400       -5.1945821E-19
   91.12550       -5.1679732E-19
   91.28700       -5.1103099E-19
   91.44850       -5.0464366E-19
   91.61000       -5.0047369E-19
   91.77150       -5.0044432E-19
   91.93300       -5.0468471E-19
   92.09450       -5.1138823E-19
   92.25600       -5.1749867E-19
   92.41750       -5.1999794E-19
   92.57900       -5.1731969E-19
   92.74050       -5.1025841E-19
   92.90200       -5.0185916E-19
   93.06350       -4.9616149E-19
   93.22500       -4.9624814E-19
   93.38650       -5.0253978E-19
   93.54800       -5.1231995E-19
   93.70950       -5.2093679E-19
   93.87100       -5.2419257E-19
   94.03250       -5.2068419E-19
   94.19400       -5.1272821E-19
   94.35550       -5.0524119E-19
   94.51700       -5.0307698E-19
   94.67850       -5.0825260E-19
   94.84000       -5.1862808E-19
   95.00150       -5.2884908E-19
   95.16300       -5.3312509E-19
   95.32450       -5.2837061E-19
   95.48600       -5.1600974E-19
   95.64750       -5.0141605E-19
   95.80900       -4.9123160E-19
   95.97050       -4.8996089E-19
   96.13200       -4.9763248E-19
   96.29350       -5.0977166E-19
   96.45500       -5.1970703E-19
   96.61650       -5.2201864E-19
   96.77800       -5.1535658E-19
   96.93950       -5.0318007E-19
   97.10100       -4.9201587E-19
   97.26250       -4.8808180E-19
   97.42400       -4.9398327E-19
   97.58550       -5.0718983E-19
   97.74700       -5.2115770E-19
   97.90850       -5.2862931E-19
   98.07000       -5.2545206E-19
   98.23150       -5.1291955E-19
   98.39300       -4.9730321E-19
   98.55450       -4.8670811E-19
   98.71600       -4.8683244E-19
   98.87750       -4.9787236E-19
   99.03900       -5.1428011E-19
   99.20050       -5.2759818E-19
   99.36200       -5.3093544E-19
   99.52350       -5.2270928E-19
   99.68500       -5.0760042E-19
   99.84650       -4.9414581E-19
   100.0080       -4.9019757E-19
   100.1695       -4.9867664E-19
   100.3310       -5.1591798E-19
   100.4925       -5.3353144E-19
   100.6540       -5.4279380E-19
   100.8155       -5.3922477E-19
   100.9770       -5.2492054E-19
   101.1385       -5.0741673E-19
   101.3000       -4.9572024E-19
   101.4615       -4.9562243E-19
   101.6230       -5.0675835E-19
   101.7845       -5.2292146E-19
   101.9460       -5.3542424E-19
   102.1075       -5.3769950E-19
   102.2690       -5.2872475E-19
   102.4305       -5.1348457E-19
   102.5920       -5.0027144E-19
   102.7535       -4.9626789E-19
   102.9150       -5.0375005E-19
   103.0765       -5.1891087E-19
   103.2380       -5.3390683E-19
   103.3995       -5.4103165E-19
   103.5610       -5.3679545E-19
   103.7225       -5.2373654E-19
   103.8840       -5.0899142E-19
   104.0455       -5.0040694E-19
   104.2070       -5.0228816E-19
   104.3685       -5.1309569E-19
   104.5300       -5.2633425E-19
   104.6915       -5.3414382E-19
   104.8530       -5.3161936E-19
   105.0145       -5.1948426E-19
   105.1760       -5.0366087E-19
   105.3375       -4.9198676E-19
   105.4990       -4.8992171E-19
   105.6605       -4.9763020E-19
   105.8220       -5.1003326E-19
   105.9835       -5.1976328E-19
   106.1450       -5.2131616E-19
   106.3065       -5.1405972E-19
   106.4680       -5.0246171E-19
   106.6295       -4.9348339E-19
   106.7910       -4.9266484E-19
   106.9525       -5.0110969E-19
   107.1140       -5.1498161E-19
   107.2755       -5.2770406E-19
   107.4370       -5.3355859E-19
   107.5985       -5.3067762E-19
   107.7600       -5.2182896E-19
   107.9215       -5.1267677E-19
   108.0830       -5.0857246E-19
   108.2445       -5.1169346E-19
   108.4060       -5.2004483E-19
   108.5675       -5.2876244E-19
   108.7290       -5.3287818E-19
   108.8905       -5.3000073E-19
   109.0520       -5.2149752E-19
   109.2135       -5.1164161E-19
   109.3750       -5.0527196E-19
   109.5365       -5.0524926E-19
   109.6980       -5.1103513E-19
   109.8595       -5.1911048E-19
   110.0210       -5.2495916E-19
   110.1825       -5.2553178E-19
   110.3440       -5.2084833E-19
   110.5055       -5.1388513E-19
   110.6670       -5.0883028E-19
   110.8285       -5.0870310E-19
   110.9900       -5.1366846E-19
   111.1515       -5.2098875E-19
   111.3130       -5.2661926E-19
   111.4745       -5.2754390E-19
   111.6360       -5.2350224E-19
   111.7975       -5.1711480E-19
   111.9590       -5.1230728E-19
   112.1205       -5.1195966E-19
   112.2820       -5.1618769E-19
   112.4435       -5.2231265E-19
   112.6050       -5.2655211E-19
   112.7665       -5.2638378E-19
   112.9280       -5.2209407E-19
   113.0895       -5.1655041E-19
   113.2510       -5.1336240E-19
   113.4125       -5.1461088E-19
   113.5740       -5.1958296E-19
   113.7355       -5.2526481E-19
   113.8970       -5.2824747E-19
   114.0585       -5.2682037E-19
   114.2200       -5.2196291E-19
   114.3815       -5.1665174E-19
   114.5430       -5.1396309E-19
   114.7045       -5.1518044E-19
   114.8660       -5.1907734E-19
   115.0275       -5.2277375E-19
   115.1890       -5.2357281E-19
   115.3505       -5.2060457E-19
   115.5120       -5.1528932E-19
   115.6735       -5.1041449E-19
   115.8350       -5.0846570E-19
   115.9965       -5.1022630E-19
   116.1580       -5.1441742E-19
   116.3195       -5.1850002E-19
   116.4810       -5.2014378E-19
   116.6425       -5.1854960E-19
   116.8040       -5.1492128E-19
   116.9655       -5.1183662E-19
   117.1270       -5.1181418E-19
   117.2885       -5.1581954E-19
   117.4500       -5.2252767E-19
   117.6115       -5.2883337E-19
   117.7730       -5.3143237E-19
   117.9345       -5.2868773E-19
   118.0960       -5.2174536E-19
   118.2575       -5.1417056E-19
   118.4190       -5.1015103E-19
   118.5805       -5.1214681E-19
   118.7420       -5.1931324E-19