  -27.90000        3.5960584E-19
  -27.73850        3.6023424E-19
  -27.57700        3.6129732E-19
  -27.41550        3.6249425E-19
  -27.25400        3.6352352E-19
  -27.09250        3.6418506E-19
  -26.93100        3.6443717E-19
  -26.76950        3.6439870E-19
  -26.60800        3.6429530E-19
  -26.44650        3.6438131E-19
  -26.28500        3.6485270E-19
  -26.12350        3.6577971E-19
  -25.96200        3.6707833E-19
  -25.80050        3.6852835E-19
  -25.63900        3.6984010E-19
  -25.47750        3.7075096E-19
  -25.31600        3.7112337E-19
  -25.15450        3.7100625E-19
  -24.99300        3.7062324E-19
  -24.83150        3.7029399E-19
  -24.67000        3.7031423E-19
  -24.50850        3.7084130E-19
  -24.34700        3.7183868E-19
  -24.18550        3.7309770E-19
  -24.02400        3.7432340E-19
  -23.86250        3.7525072E-19
  -23.70100        3.7573568E-19
  -23.53950        3.7579425E-19
  -23.37800        3.7558193E-19
  -23.21650        3.7532938E-19
  -23.05500        3.7526602E-19
  -22.89350        3.7555520E-19
  -22.73200        3.7625393E-19
  -22.57050        3.7730008E-19
  -22.40900        3.7852253E-19
  -22.24750        3.7968120E-19
  -22.08600        3.8053276E-19
  -21.92450        3.8091287E-19
  -21.76300        3.8081196E-19
  -21.60150        3.8040571E-19
  -21.44000        3.8000556E-19
  -21.27850        3.7994497E-19
  -21.11700        3.8042680E-19
  -20.95550        3.8142518E-19
  -20.79400        3.8268702E-19
  -20.63250        3.8384745E-19
  -20.47100        3.8460641E-19
  -20.30950        3.8486403E-19
  -20.14800        3.8474861E-19
  -19.98650        3.8452370E-19
  -19.82500        3.8444129E-19
  -19.66350        3.8463149E-19
  -19.50200        3.8508256E-19
  -19.34050        3.8569770E-19
  -19.17900        3.8637185E-19
  -19.01750        3.8702411E-19
  -18.85600        3.8758302E-19
  -18.69450        3.8796304E-19
  -18.53300        3.8809414E-19
  -18.37150        3.8799152E-19
  -18.21000        3.8781727E-19
  -18.04850        3.8785773E-19
  -17.88700        3.8838759E-19
  -17.72550        3.8948944E-19
  -17.56400        3.9094564E-19
  -17.40250        3.9229547E-19
  -17.24100        3.9305343E-19
  -17.07950        3.9296745E-19
  -16.91800        3.9216411E-19
  -16.75650        3.9109198E-19
  -16.59500        3.9029292E-19
  -16.43350        3.9014292E-19
  -16.27200        3.9069922E-19
  -16.11050        3.9172872E-19
  -15.94900        3.9286261E-19
  -15.78750        3.9377592E-19
  -15.62600        3.9428753E-19
  -15.46450        3.9436746E-19
  -15.30300        3.9409133E-19
  -15.14150        3.9360175E-19
  -14.98000        3.9309879E-19
  -14.81850        3.9283619E-19
  -14.65700        3.9306746E-19
  -14.49550        3.9393761E-19
  -14.33400        3.9536951E-19
  -14.17250        3.9702697E-19
  -14.01100        3.9840394E-19
  -13.84950        3.9903547E-19
  -13.68800        3.9872158E-19
  -13.52650        3.9765622E-19
  -13.36500        3.9636533E-19
  -13.20350        3.9548107E-19
  -13.04200        3.9545566E-19
  -12.88050        3.9636070E-19
  -12.71900        3.9787269E-19
  -12.55750        3.9944668E-19
  -12.39600        4.0057679E-19
  -12.23450        4.0101103E-19
  -12.07300        4.0081145E-19
  -11.91150        4.0025931E-19
  -11.75000        3.9967819E-19
  -11.58850        3.9929696E-19
  -11.42700        3.9920333E-19
  -11.26550        3.9939017E-19
  -11.10400        3.9981785E-19
  -10.94250        4.0043679E-19
  -10.78100        4.0116083E-19
  -10.61950        4.0184990E-19
  -10.45800        4.0234605E-19
  -10.29650        4.0256895E-19
  -10.13500        4.0260367E-19
  -9.973500        4.0269473E-19
  -9.812000        4.0311750E-19
  -9.650500        4.0398689E-19
  -9.489000        4.0513502E-19
  -9.327500        4.0615858E-19
  -9.166000        4.0662651E-19
  -9.004500        4.0633671E-19
  -8.843000        4.0545147E-19
  -8.681500        4.0441985E-19
  -8.520000        4.0373119E-19
  -8.358500        4.0364374E-19
  -8.197000        4.0405061E-19
  -8.035500        4.0455160E-19
  -7.874000        4.0467335E-19
  -7.712500        4.0409740E-19
  -7.551000        4.0278482E-19
  -7.389500        4.0095455E-19
  -7.228000        3.9897547E-19
  -7.066500        3.9724907E-19
  -6.905000        3.9612839E-19
  -6.743500        3.9586848E-19
  -6.582000        3.9657179E-19
  -6.420500        3.9813684E-19
  -6.259000        4.0023439E-19
  -6.097500        4.0237697E-19
  -5.936000        4.0408321E-19
  -5.774500        4.0508648E-19
  -5.613000        4.0547802E-19
  -5.451500        4.0568877E-19
  -5.290000        4.0629874E-19
  -5.128500        4.0775946E-19
  -4.967000        4.1015965E-19
  -4.805500        4.1315340E-19
  -4.644000        4.1608599E-19
  -4.482500        4.1825129E-19
  -4.321000        4.1916279E-19
  -4.159500        4.1872366E-19
  -3.998000        4.1723026E-19
  -3.836500        4.1523319E-19
  -3.675000        4.1332108E-19
  -3.513500        4.1192364E-19
  -3.352000        4.1119329E-19
  -3.190500        4.1099446E-19
  -3.029000        4.1098611E-19
  -2.867500        4.1075406E-19
  -2.706000        4.0995420E-19
  -2.544500        4.0843299E-19
  -2.383000        4.0629209E-19
  -2.221500        4.0387698E-19
  -2.060000        4.0167844E-19
  -1.898500        4.0017333E-19
  -1.737000        3.9964241E-19
  -1.575500        4.0005272E-19
  -1.414000        4.0106511E-19
  -1.252500        4.0218033E-19
  -1.091000        4.0297287E-19
 -0.9295000        4.0330000E-19
 -0.7680000        4.0338142E-19
 -0.6065000        4.0370051E-19
 -0.4450000        4.0476189E-19
 -0.2835000        4.0682932E-19
 -0.1220000        4.0976452E-19
  3.9500002E-02    4.1303948E-19
  0.2010000        4.1591934E-19
  0.3625000        4.1773236E-19
  0.5240000        4.1811643E-19
  0.6855000        4.1715545E-19
  0.8470000        4.1536264E-19
   1.008500        4.1351816E-19
   1.170000        4.1241276E-19
   1.331500        4.1257753E-19
   1.493000        4.1408545E-19
   1.654500        4.1650834E-19
   1.816000        4.1905272E-19
   1.977500        4.2084931E-19
   2.139000        4.2128911E-19
   2.300500        4.2027785E-19
   2.462000        4.1829609E-19
   2.623500        4.1623377E-19
   2.785000        4.1505473E-19
   2.946500        4.1541711E-19
   3.108000        4.1740007E-19
   3.269500        4.2044784E-19
   3.431000        4.2355654E-19
   3.592500        4.2563664E-19
   3.754000        4.2592140E-19
   3.915500        4.2425951E-19
   4.077000        4.2117891E-19
   4.238500        4.1768875E-19
   4.400000        4.1489464E-19
   4.561500        4.1357705E-19
   4.723000        4.1390438E-19
   4.884500        4.1539266E-19
   5.046000        4.1711614E-19
   5.207500        4.1808627E-19
   5.369000        4.1763561E-19
   5.530500        4.1566725E-19
   5.692000        4.1268020E-19
   5.853500        4.0956917E-19
   6.015000        4.0728523E-19
   6.176500        4.0647841E-19
   6.338000        4.0726630E-19
   6.499500        4.0920537E-19
   6.661000        4.1148689E-19
   6.822500        4.1327422E-19
   6.984000        4.1404407E-19
   7.145500        4.1377777E-19
   7.307000        4.1293037E-19
   7.468500        4.1219475E-19
   7.630000        4.1217296E-19
   7.791500        4.1311426E-19
   7.953000        4.1482221E-19
   8.114500        4.1676115E-19
   8.276000        4.1828776E-19
   8.437500        4.1891241E-19
   8.599000        4.1848186E-19
   8.760500        4.1724063E-19
   8.922000        4.1575305E-19
   9.083500        4.1471305E-19
   9.245000        4.1469800E-19
   9.406500        4.1594102E-19
   9.568000        4.1820719E-19
   9.729500        4.2084403E-19
   9.891000        4.2301812E-19
   10.05250        4.2405277E-19
   10.21400        4.2372733E-19
   10.37550        4.2238626E-19
   10.53700        4.2080578E-19
   10.69850        4.1985850E-19
   10.86000        4.2014850E-19
   11.02150        4.2177867E-19
   11.18300        4.2435128E-19
   11.34450        4.2717318E-19
   11.50600        4.2955039E-19
   11.66750        4.3102627E-19
   11.82900        4.3147987E-19
   11.99050        4.3108184E-19
   12.15200        4.3017380E-19
   12.31350        4.2913326E-19
   12.47500        4.2827532E-19
   12.63650        4.2778020E-19
   12.79800        4.2764770E-19
   12.95950        4.2768391E-19
   13.12100        4.2754482E-19
   13.28250        4.2685469E-19
   13.44400        4.2537171E-19
   13.60550        4.2313308E-19
   13.76700        4.2049437E-19
   13.92850        4.1801461E-19
   14.09000        4.1623077E-19
   14.25150        4.1542753E-19
   14.41300        4.1552911E-19
   14.57450        4.1616863E-19
   14.73600        4.1690482E-19
   14.89750        4.1746068E-19
   15.05900        4.1784625E-19
   15.22050        4.1830635E-19
   15.38200        4.1913363E-19
   15.54350        4.2046307E-19
   15.70500        4.2217742E-19
   15.86650        4.2396767E-19
   16.02800        4.2550021E-19
   16.18950        4.2658754E-19
   16.35100        4.2725404E-19
   16.51250        4.2768192E-19
   16.67400        4.2808003E-19
   16.83550        4.2857660E-19
   16.99700        4.2917666E-19
   17.15850        4.2979278E-19
   17.32000        4.3029279E-19
   17.48150        4.3051902E-19
   17.64300        4.3028351E-19
   17.80450        4.2938651E-19
   17.96600        4.2769816E-19
   18.12750        4.2529109E-19
   18.28900        4.2254710E-19
   18.45050        4.2011991E-19
   18.61200        4.1873035E-19
   18.77350        4.1884975E-19
   18.93500        4.2044918E-19
   19.09650        4.2296640E-19
   19.25800        4.2554304E-19
   19.41950        4.2741847E-19
   19.58100        4.2827191E-19
   19.74250        4.2833025E-19
   19.90400        4.2819602E-19
   20.06550        4.2851420E-19
   20.22700        4.2967207E-19
   20.38850        4.3167501E-19
   20.55000        4.3421461E-19
   20.71150        4.3683088E-19
   20.87300        4.3905878E-19
   21.03450        4.4051074E-19
   21.19600        4.4092253E-19
   21.35750        4.4022268E-19
   21.51900        4.3860709E-19
   21.68050        4.3655692E-19
   21.84200        4.3470151E-19
   22.00350        4.3354813E-19
   22.16500        4.3319446E-19
   22.32650        4.3321829E-19
   22.48800        4.3285997E-19
   22.64950        4.3142799E-19
   22.81100        4.2872409E-19
   22.97250        4.2522388E-19
   23.13400        4.2190264E-19
   23.29550        4.1978956E-19
   23.45700        4.1949449E-19
   23.61850        4.2095723E-19
   23.78000        4.2352780E-19
   23.94150        4.2630208E-19
   24.10300        4.2851086E-19
   24.26450        4.2977839E-19
   24.42600        4.3016416E-19
   24.58750        4.3003915E-19
   24.74900        4.2989887E-19
   24.91050        4.3019187E-19
   25.07200        4.3120220E-19
   25.23350        4.3296890E-19
   25.39500        4.3523948E-19
   25.55650        4.3749329E-19
   25.71800        4.3906969E-19
   25.87950        4.3941018E-19
   26.04100        4.3833722E-19
   26.20250        4.3623763E-19
   26.36400        4.3401448E-19
   26.52550        4.3277562E-19
   26.68700        4.3335664E-19
   26.84850        4.3590299E-19
   27.01000        4.3972120E-19
   27.17150        4.4350922E-19
   27.33300        4.4588473E-19
   27.49450        4.4596574E-19
   27.65600        4.4373711E-19
   27.81750        4.4003098E-19
   27.97900        4.3614887E-19
   28.14050        4.3332332E-19
   28.30200        4.3226140E-19
   28.46350        4.3295422E-19
   28.62500        4.3477569E-19
   28.78650        4.3677799E-19
   28.94800        4.3803008E-19
   29.10950        4.3789980E-19
   29.27100        4.3622212E-19
   29.43250        4.3334459E-19
   29.59400        4.3004414E-19
   29.75550        4.2731186E-19
   29.91700        4.2602617E-19
   30.07850        4.2661336E-19
   30.24000        4.2883610E-19
   30.40150        4.3184029E-19
   30.56300        4.3449228E-19
   30.72450        4.3586607E-19
   30.88600        4.3567091E-19
   31.04750        4.3438041E-19
   31.20900        4.3299824E-19
   31.37050        4.3256159E-19
   31.53200        4.3363424E-19
   31.69350        4.3604164E-19
   31.85500        4.3896671E-19
   32.01650        4.4134982E-19
   32.17800        4.4238240E-19
   32.33950        4.4185879E-19
   32.50100        4.4023958E-19
   32.66250        4.3842615E-19
   32.82400        4.3737987E-19
   32.98550        4.3775391E-19
   33.14700        4.3967509E-19
   33.30850        4.4272671E-19
   33.47000        4.4610047E-19
   33.63150        4.4885110E-19
   33.79300        4.5017831E-19
   33.95450        4.4966789E-19
   34.11600        4.4743450E-19
   34.27750        4.4410789E-19
   34.43900        4.4064645E-19
   34.60050        4.3800242E-19
   34.76200        4.3676284E-19
   34.92350        4.3691411E-19
   35.08500        4.3786123E-19
   35.24650        4.3871768E-19
   35.40800        4.3874177E-19
   35.56950        4.3771239E-19
   35.73100        4.3604433E-19
   35.89250        4.3458979E-19
   36.05400        4.3422169E-19
   36.21550        4.3542674E-19
   36.37700        4.3809677E-19
   36.53850        4.4160686E-19
   36.70000        4.4509932E-19
   36.86150        4.4780684E-19
   37.02300        4.4926252E-19
   37.18450        4.4934162E-19
   37.34600        4.4817850E-19
   37.50750        4.4605864E-19
   37.66900        4.4335066E-19
   37.83050        4.4048086E-19
   37.99200        4.3790094E-19
   38.15350        4.3600912E-19
   38.31500        4.3503165E-19
   38.47650        4.3492417E-19
   38.63800        4.3536873E-19
   38.79950        4.3588375E-19
   38.96100        4.3602479E-19
   39.12250        4.3558349E-19
   39.28400        4.3469510E-19
   39.44550        4.3381218E-19
   39.60700        4.3355010E-19
   39.76850        4.3446990E-19
   39.93000        4.3686427E-19
   40.09150        4.4062893E-19
   40.25300        4.4524713E-19
   40.41450        4.4991196E-19
   40.57600        4.5374486E-19
   40.73750        4.5606081E-19
   40.89900        4.5659641E-19
   41.06050        4.5560824E-19
   41.22200        4.5379516E-19
   41.38350        4.5204495E-19
   41.54500        4.5108816E-19
   41.70650        4.5118442E-19
   41.86800        4.5199124E-19
   42.02950        4.5268260E-19
   42.19100        4.5229910E-19
   42.35250        4.5019899E-19
   42.51400        4.4641257E-19
   42.67550        4.4172623E-19
   42.83700        4.3742748E-19
   42.99850        4.3479146E-19
   43.16000        4.3452656E-19
   43.32150        4.3642065E-19
   43.48300        4.3936179E-19
   43.64450        4.4174593E-19
   43.80600        4.4211279E-19
   43.96750        4.3975268E-19
   44.12900        4.3503305E-19
   44.29050        4.2930557E-19
   44.45200        4.2443676E-19
   44.61350        4.2211541E-19
   44.77500        4.2321561E-19
   44.93650        4.2743713E-19
   45.09800        4.3338745E-19
   45.25950        4.3909373E-19
   45.42100        4.4278441E-19
   45.58250        4.4363299E-19
   45.74400        4.4215068E-19
   45.90550        4.4001475E-19
   46.06700        4.3936101E-19
   46.22850        4.4181014E-19
   46.39000        4.4765914E-19
   46.55150        4.5562907E-19
   46.71300        4.6330707E-19
   46.87450        4.6811702E-19
   47.03600        4.6839552E-19
   47.19750        4.6409961E-19
   47.35900        4.5684673E-19
   47.52050        4.4928522E-19
   47.68200        4.4406654E-19
   47.84350        4.4283977E-19
   48.00500        4.4565307E-19
   48.16650        4.5097391E-19
   48.32800        4.5631558E-19
   48.48950        4.5922467E-19
   48.65100        4.5827703E-19
   48.81250        4.5368246E-19
   48.97400        4.4724348E-19
   49.13550        4.4164967E-19
   49.29700        4.3937203E-19
   49.45850        4.4160516E-19
   49.62000        4.4772231E-19
   49.78150        4.5549481E-19
   49.94300        4.6199485E-19
   50.10450        4.6478302E-19
   50.26600        4.6287326E-19
   50.42750        4.5707897E-19
   50.58900        4.4962048E-19
   50.75050        4.4320813E-19
   50.91200        4.3998502E-19
   51.07350        4.4075285E-19
   51.23500        4.4473247E-19
   51.39650        4.4992266E-19
   51.55800        4.5389375E-19
   51.71950        4.5472414E-19
   51.88100        4.5174727E-19
   52.04250        4.4584239E-19
   52.20400        4.3914279E-19
   52.36550        4.3425390E-19
   52.52700        4.3325316E-19
   52.68850        4.3685435E-19
   52.85000        4.4408075E-19
   53.01150        4.5259575E-19
   53.17300        4.5957410E-19
   53.33450        4.6277834E-19
   53.49600        4.6139731E-19
   53.65750        4.5631574E-19
   53.81900        4.4970832E-19
   53.98050        4.4415055E-19
   54.14200        4.4161524E-19
   54.30350        4.4277019E-19
   54.46500        4.4682735E-19
   54.62650        4.5196197E-19
   54.78800        4.5608397E-19
   54.94950        4.5762852E-19
   55.11100        4.5607528E-19
   55.27250        4.5205829E-19
   55.43400        4.4708631E-19
   55.59550        4.4302175E-19
   55.75700        4.4149147E-19
   55.91850        4.4337362E-19
   56.08000        4.4849040E-19
   56.24150        4.5558570E-19
   56.40300        4.6264243E-19
   56.56450        4.6750470E-19
   56.72600        4.6863995E-19
   56.88750        4.6577418E-19
   57.04900        4.6010200E-19
   57.21050        4.5392534E-19
   57.37200        4.4979931E-19
   57.53350        4.4951000E-19
   57.69500        4.5332165E-19
   57.85650        4.5981885E-19
   58.01800        4.6642393E-19
   58.17950        4.7038055E-19
   58.34100        4.6979449E-19
   58.50250        4.6434239E-19
   58.66400        4.5539607E-19
   58.82550        4.4555112E-19
   58.98700        4.3774563E-19
   59.14850        4.3426181E-19
   59.31000        4.3592832E-19
   59.47150        4.4178145E-19
   59.63300        4.4932161E-19
   59.79450        4.5534225E-19
   59.95600        4.5710021E-19
   60.11750        4.5343885E-19
   60.27900        4.4540584E-19
   60.44050        4.3604578E-19
   60.60200        4.2934132E-19
   60.76350        4.2864941E-19
   60.92500        4.3525572E-19
   61.08650        4.4768607E-19
   61.24800        4.6213945E-19
   61.40950        4.7391762E-19
   61.57100        4.7929161E-19
   61.73250        4.7701619E-19
   61.89400        4.6884421E-19
   62.05550        4.5882194E-19
   62.21700        4.5164961E-19
   62.37850        4.5079658E-19
   62.54000        4.5710714E-19
   62.70150        4.6844970E-19
   62.86300        4.8051061E-19
   63.02450        4.8842254E-19
   63.18600        4.8860618E-19
   63.34750        4.8016160E-19
   63.50900        4.6529452E-19
   63.67050        4.4860424E-19
   63.83200        4.3546029E-19
   63.99350        4.3003086E-19
   64.15500        4.3369224E-19
   64.31650        4.4444833E-19
   64.47800        4.5764160E-19
   64.63950        4.6775192E-19
   64.80100        4.7059086E-19
   64.96250        4.6502119E-19
   65.12400        4.5345710E-19
   65.28550        4.4089347E-19
   65.44700        4.3283510E-19
   65.60850        4.3298971E-19
   65.77000        4.4168932E-19
   65.93150        4.5572378E-19
   66.09300        4.6964963E-19
   66.25450        4.7800550E-19
   66.41600        4.7751141E-19
   66.57750        4.6833302E-19
   66.73900        4.5394271E-19
   66.90050        4.3967870E-19
   67.06200        4.3063591E-19
   67.22350        4.2973912E-19
   67.38500        4.3673932E-19
   67.54650        4.4846109E-19
   67.70800        4.6015055E-19
   67.86950        4.6736677E-19
   68.03100        4.6767639E-19
   68.19250        4.6153980E-19
   68.35400        4.5206025E-19
   68.51550        4.4371989E-19
   68.67700        4.4059786E-19
   68.83850        4.4475992E-19
   69.00000        4.5544223E-19
   69.16150        4.6935427E-19
   69.32300        4.8197157E-19
   69.48450        4.8930055E-19
   69.64600        4.8940038E-19
   69.80750        4.8305223E-19
   69.96900        4.7331885E-19
   70.13050        4.6419401E-19
   70.29200        4.5893573E-19
   70.45350        4.5877779E-19
   70.61500        4.6255702E-19
   70.77650        4.6737767E-19
   70.93800        4.6998577E-19
   71.09950        4.6823215E-19
   71.26100        4.6199237E-19
   71.42250        4.5316532E-19
   71.58400        4.4481317E-19
   71.74550        4.3985339E-19
   71.90700        4.3988860E-19
   72.06850        4.4464996E-19
   72.23000        4.5222817E-19
   72.39150        4.5992855E-19
   72.55300        4.6535418E-19
   72.71450        4.6727712E-19
   72.87600        4.6598274E-19
   73.03750        4.6299832E-19
   73.19900        4.6034778E-19
   73.36050        4.5964043E-19
   73.52200        4.6136547E-19
   73.68350        4.6467476E-19
   73.84500        4.6776433E-19
   74.00650        4.6871197E-19
   74.16800        4.6639772E-19
   74.32950        4.6109508E-19
   74.49100        4.5442118E-19
   74.65250        4.4864922E-19
   74.81400        4.4569458E-19
   74.97550        4.4625557E-19
   75.13700        4.4952913E-19
   75.29850        4.5363691E-19
   75.46000        4.5654673E-19
   75.62150        4.5704557E-19
   75.78300        4.5530172E-19
   75.94450        4.5277333E-19
   76.10600        4.5151369E-19
   76.26750        4.5320430E-19
   76.42900        4.5834507E-19
   76.59050        4.6594272E-19
   76.75200        4.7384374E-19
   76.91350        4.7957207E-19
   77.07500        4.8134296E-19
   77.23650        4.7883278E-19
   77.39800        4.7337613E-19
   77.55950        4.6747673E-19
   77.72100        4.6380400E-19
   77.88250        4.6406275E-19
   78.04400        4.6820775E-19
   78.20550        4.7435763E-19
   78.36700        4.7947834E-19
   78.52850        4.8060103E-19
   78.69000        4.7609435E-19
   78.85150        4.6646788E-19
   79.01300        4.5434436E-19
   79.17450        4.4356268E-19
   79.33600        4.3772692E-19
   79.49750        4.3875573E-19
   79.65900        4.4603295E-19
   79.82050        4.5653489E-19
   79.98200        4.6594464E-19
   80.14350        4.7033448E-19
   80.30500        4.6777157E-19
   80.46650        4.5917520E-19
   80.62800        4.4806528E-19
   80.78950        4.3925188E-19
   80.95100        4.3696829E-19
   81.11250        4.4316532E-19
   81.27400        4.5663787E-19
   81.43550        4.7334971E-19
   81.59700        4.8786575E-19
   81.75850        4.9536673E-19
   81.92000        4.9349244E-19
   82.08150        4.8329475E-19
   82.24300        4.6890367E-19
   82.40450        4.5598988E-19
   82.56600        4.4959846E-19
   82.72750        4.5218144E-19
   82.88900        4.6261916E-19
   83.05050        4.7662814E-19
   83.21200        4.8842368E-19
   83.37350        4.9298662E-19
   83.53500        4.8805693E-19
   83.69650        4.7507743E-19
   83.85800        4.5871347E-19
   84.01950        4.4513629E-19
   84.18100        4.3970197E-19
   84.34250        4.4489604E-19
   84.50400        4.5932600E-19
   84.66550        4.7814627E-19
   84.82700        4.9480088E-19
   84.98850        5.0345221E-19
   85.15000        5.0118656E-19
   85.31150        4.8914343E-19
   85.47300        4.7209819E-19
   85.63450        4.5662195E-19
   85.79600        4.4851827E-19
   85.95750        4.5054884E-19
   86.11900        4.6134897E-19
   86.28050        4.7597756E-19
   86.44200        4.8788746E-19
   86.60350        4.9152292E-19
   86.76500        4.8452482E-19
   86.92650        4.6867800E-19
   87.08800        4.4924639E-19
   87.24950        4.3297324E-19
   87.41100        4.2552233E-19
   87.57250        4.2933920E-19
   87.73400        4.4273824E-19
   87.89550        4.6054568E-19
   88.05700        4.7605485E-19
   88.21850        4.8355572E-19
   88.38000        4.8048151E-19
   88.54150        4.6836088E-19
   88.70300        4.5220356E-19
   88.86450        4.3854567E-19
   89.02600        4.3290138E-19
   89.18750        4.3761354E-19
   89.34900        4.5095059E-19
   89.51050        4.6781406E-19
   89.67200        4.8176829E-19
   89.83350        4.8758745E-19
   89.99500        4.8329785E-19
   90.15650        4.7090405E-19
   90.31800        4.5554470E-19
   90.47950        4.4345758E-19
   90.64100        4.3958399E-19
   90.80250        4.4575357E-19
   90.96400        4.6011136E-19
   91.12550        4.7793648E-19
   91.28700        4.9346669E-19
   91.44850        5.0201323E-19
   91.61000        5.0159364E-19
   91.77150        4.9353070E-19
   91.93300        4.8184889E-19
   92.09450        4.7171898E-19
   92.25600        4.6752393E-19
   92.41750        4.7123296E-19
   92.57900        4.8167652E-19
   92.74050        4.9500137E-19
   92.90200        5.0613486E-19
   93.06350        5.1071387E-19
   93.22500        5.0673534E-19
   93.38650        4.9527868E-19
   93.54800        4.8002630E-19
   93.70950        4.6579972E-19
   93.87100        4.5671459E-19
   94.03250        4.5469208E-19
   94.19400        4.5888754E-19
   94.35550        4.6619729E-19
   94.51700        4.7257030E-19
   94.67850        4.7458066E-19
   94.84000        4.7065832E-19
   95.00150        4.6157206E-19
   95.16300        4.5004938E-19
   95.32450        4.3974710E-19
   95.48600        4.3395322E-19
   95.64750        4.3448649E-19
   95.80900        4.4113868E-19
   95.97050        4.5182745E-19
   96.13200        4.6336859E-19
   96.29350        4.7260323E-19
   96.45500        4.7746178E-19
   96.61650        4.7761781E-19
   96.77800        4.7449546E-19
   96.93950        4.7064757E-19
   97.10100        4.6874190E-19
   97.26250        4.7052499E-19
   97.42400        4.7614987E-19
   97.58550        4.8409825E-19
   97.74700        4.9173075E-19
   97.90850        4.9624664E-19
   98.07000        4.9570453E-19
   98.23150        4.8973590E-19
   98.39300        4.7970003E-19
   98.55450        4.6822941E-19
   98.71600        4.5834310E-19
   98.87750        4.5244432E-19
   99.03900        4.5156007E-19
   99.20050        4.5507512E-19
   99.36200        4.6104152E-19
   99.52350        4.6693746E-19
   99.68500        4.7058827E-19
   99.84650        4.7092731E-19
   100.0080        4.6832702E-19
   100.1695        4.6439553E-19
   100.3310        4.6131796E-19
   100.4925        4.6100094E-19
   100.6540        4.6433577E-19
   100.8155        4.7085209E-19
   100.9770        4.7889337E-19
   101.1385        4.8622411E-19
   101.3000        4.9083693E-19
   101.4615        4.9164054E-19
   101.6230        4.8877880E-19
   101.7845        4.8348552E-19
   101.9460        4.7757371E-19
   102.1075        4.7277818E-19
   102.2690        4.7021211E-19
   102.4305        4.7011016E-19
   102.5920        4.7190225E-19
   102.7535        4.7453093E-19
   102.9150        4.7685908E-19
   103.0765        4.7802545E-19
   103.2380        4.7765653E-19
   103.3995        4.7591056E-19
   103.5610        4.7337711E-19
   103.7225        4.7088673E-19
   103.8840        4.6926845E-19
   104.0455        4.6911961E-19
   104.2070        4.7062441E-19
   104.3685        4.7347813E-19
   104.5300        4.7693725E-19
   104.6915        4.7999264E-19
   104.8530        4.8162974E-19
   105.0145        4.8111487E-19
   105.1760        4.7823592E-19
   105.3375        4.7343362E-19
   105.4990        4.6778020E-19
   105.6605        4.6276909E-19
   105.8220        4.5993046E-19
   105.9835        4.6035289E-19
   106.1450        4.6423935E-19
   106.3065        4.7067906E-19
   106.4680        4.7778779E-19
   106.6295        4.8325111E-19
   106.7910        4.8514179E-19
   106.9525        4.8271257E-19
   107.1140        4.7682170E-19
   107.2755        4.6974532E-19
   107.4370        4.6437573E-19
   107.5985        4.6307380E-19
   107.7600        4.6663895E-19
   107.9215        4.7385088E-19
   108.0830        4.8182960E-19
   108.2445        4.8711617E-19
   108.4060        4.8707688E-19
   108.5675        4.8105495E-19
   108.7290        4.7079352E-19
   108.8905        4.5990875E-19
   109.0520        4.5257683E-19
   109.2135        4.5191669E-19
   109.3750        4.5869352E-19
   109.5365        4.7086915E-19
   109.6980        4.8423592E-19
   109.8595        4.9393643E-19
   110.0210        4.9633489E-19
   110.1825        4.9050678E-19
   110.3440        4.7873616E-19
   110.5055        4.6574999E-19
   110.6670        4.5693545E-19
   110.8285        4.5620365E-19
   110.9900        4.6435267E-19
   111.1515        4.7863669E-19
   111.3130        4.9376055E-19
   111.4745        5.0395607E-19
   111.6360        5.0530763E-19
   111.7975        4.9737584E-19
   111.9590        4.8343227E-19
   112.1205        4.6918563E-19
   112.2820        4.6050613E-19
   112.4435        4.6106825E-19
   112.6050        4.7086925E-19
   112.7665        4.8621175E-19
   112.9280        5.0114644E-19
   113.0895        5.0978888E-19
   113.2510        5.0859583E-19
   113.4125        4.9772186E-19
   113.5740        4.8095321E-19
   113.7355        4.6425858E-19
   113.8970        4.5351935E-19
   114.0585        4.5230148E-19
   114.2200        4.6050923E-19
   114.3815        4.7443513E-19
   114.5430        4.8820706E-19
   114.7045        4.9608803E-19
   114.8660        4.9475187E-19
   115.0275        4.8462868E-19
   115.1890        4.6976228E-19
   115.3505        4.5621544E-19
   115.5120        4.4964054E-19
   115.6735        4.5300019E-19
   115.8350        4.6536669E-19
   115.9965        4.8228476E-19
   116.1580        4.9753492E-19
   116.3195        5.0555909E-19
   116.4810        5.0356982E-19
   116.6425        4.9252562E-19
   116.8040        4.7663951E-19
   116.9655        4.6168254E-19
   117.1270        4.5278393E-19
   117.2885        4.5257450E-19
   117.4500        4.6034007E-19
   117.6115        4.7245098E-19
   117.7730        4.8384917E-19
   117.9345        4.9001766E-19
   118.0960        4.8868905E-19
   118.2575        4.8066773E-19
   118.4190        4.6947396E-19
   118.5805        4.5995487E-19
   118.7420        4.5639639E-19