  -27.90000        8.7185589E-18
  -27.73850        8.7426224E-18
  -27.57700        8.7834992E-18
  -27.41550        8.8297155E-18
  -27.25400        8.8694722E-18
  -27.09250        8.8946185E-18
  -26.93100        8.9033014E-18
  -26.76950        8.9003741E-18
  -26.60800        8.8954300E-18
  -26.44650        8.8991689E-18
  -26.28500        8.9193934E-18
  -26.12350        8.9580608E-18
  -25.96200        9.0104412E-18
  -25.80050        9.0666771E-18
  -25.63900        9.1151937E-18
  -25.47750        9.1467539E-18
  -25.31600        9.1577099E-18
  -25.15450        9.1513059E-18
  -24.99300        9.1365656E-18
  -24.83150        9.1251629E-18
  -24.67000        9.1273574E-18
  -24.50850        9.1484571E-18
  -24.34700        9.1870136E-18
  -24.18550        9.2354128E-18
  -24.02400        9.2826184E-18
  -23.86250        9.3181110E-18
  -23.70100        9.3356216E-18
  -23.53950        9.3353329E-18
  -23.37800        9.3237888E-18
  -23.21650        9.3115283E-18
  -23.05500        9.3093131E-18
  -22.89350        9.3242644E-18
  -22.73200        9.3573136E-18
  -22.57050        9.4028573E-18
  -22.40900        9.4507469E-18
  -22.24750        9.4899181E-18
  -22.08600        9.5123330E-18
  -21.92450        9.5158717E-18
  -21.76300        9.5050944E-18
  -21.60150        9.4896311E-18
  -21.44000        9.4807546E-18
  -21.27850        9.4873596E-18
  -21.11700        9.5127764E-18
  -20.95550        9.5535696E-18
  -20.79400        9.6007413E-18
  -20.63250        9.6429184E-18
  -20.47100        9.6703957E-18
  -20.30950        9.6785881E-18
  -20.14800        9.6696677E-18
  -19.98650        9.6517949E-18
  -19.82500        9.6362174E-18
  -19.66350        9.6332660E-18
  -19.50200        9.6486731E-18
  -19.34050        9.6815527E-18
  -19.17900        9.7247274E-18
  -19.01750        9.7673371E-18
  -18.85600        9.7987642E-18
  -18.69450        9.8124987E-18
  -18.53300        9.8085307E-18
  -18.37150        9.7934239E-18
  -18.21000        9.7780119E-18
  -18.04850        9.7735294E-18
  -17.88700        9.7875625E-18
  -17.72550        9.8212420E-18
  -17.56400        9.8687246E-18
  -17.40250        9.9191446E-18
  -17.24100        9.9603729E-18
  -17.07950        9.9832643E-18
  -16.91800        9.9848765E-18
  -16.75650        9.9695133E-18
  -16.59500        9.9472083E-18
  -16.43350        9.9301684E-18
  -16.27200        9.9284413E-18
  -16.11050        9.9463506E-18
  -15.94900        9.9809755E-18
  -15.78750        1.0023230E-17
  -15.62600        1.0061178E-17
  -15.46450        1.0084390E-17
  -15.30300        1.0087800E-17
  -15.14150        1.0073661E-17
  -14.98000        1.0050876E-17
  -14.81850        1.0031929E-17
  -14.65700        1.0028472E-17
  -14.49550        1.0047156E-17
  -14.33400        1.0087165E-17
  -14.17250        1.0140377E-17
  -14.01100        1.0194103E-17
  -13.84950        1.0235442E-17
  -13.68800        1.0255748E-17
  -13.52650        1.0253596E-17
  -13.36500        1.0235205E-17
  -13.20350        1.0212145E-17
  -13.04200        1.0197164E-17
  -12.88050        1.0199576E-17
  -12.71900        1.0221911E-17
  -12.55750        1.0258998E-17
  -12.39600        1.0299844E-17
  -12.23450        1.0331640E-17
  -12.07300        1.0344468E-17
  -11.91150        1.0335019E-17
  -11.75000        1.0307960E-17
  -11.58850        1.0274457E-17
  -11.42700        1.0248345E-17
  -11.26550        1.0241310E-17
  -11.10400        1.0258788E-17
  -10.94250        1.0298064E-17
  -10.78100        1.0349248E-17
  -10.61950        1.0398777E-17
  -10.45800        1.0434214E-17
  -10.29650        1.0448601E-17
  -10.13500        1.0442816E-17
  -9.973500        1.0425100E-17
  -9.812000        1.0407897E-17
  -9.650500        1.0403172E-17
  -9.489000        1.0417909E-17
  -9.327500        1.0451410E-17
  -9.166000        1.0495393E-17
  -9.004500        1.0536889E-17
  -8.843000        1.0562855E-17
  -8.681500        1.0564886E-17
  -8.520000        1.0542271E-17
  -8.358500        1.0502318E-17
  -8.197000        1.0457798E-17
  -8.035500        1.0422449E-17
  -7.874000        1.0406164E-17
  -7.712500        1.0411592E-17
  -7.551000        1.0433382E-17
  -7.389500        1.0460332E-17
  -7.228000        1.0479649E-17
  -7.066500        1.0481767E-17
  -6.905000        1.0463976E-17
  -6.743500        1.0431530E-17
  -6.582000        1.0395836E-17
  -6.420500        1.0370375E-17
  -6.259000        1.0365817E-17
  -6.097500        1.0386139E-17
  -5.936000        1.0427133E-17
  -5.774500        1.0477879E-17
  -5.613000        1.0524656E-17
  -5.451500        1.0555853E-17
  -5.290000        1.0566121E-17
  -5.128500        1.0558195E-17
  -4.967000        1.0541767E-17
  -4.805500        1.0529787E-17
  -4.644000        1.0533575E-17
  -4.482500        1.0558539E-17
  -4.321000        1.0602072E-17
  -4.159500        1.0654387E-17
  -3.998000        1.0702012E-17
  -3.836500        1.0732600E-17
  -3.675000        1.0739358E-17
  -3.513500        1.0723446E-17
  -3.352000        1.0693511E-17
  -3.190500        1.0662539E-17
  -3.029000        1.0643185E-17
  -2.867500        1.0643267E-17
  -2.706000        1.0663060E-17
  -2.544500        1.0695340E-17
  -2.383000        1.0728150E-17
  -2.221500        1.0749272E-17
  -2.060000        1.0750794E-17
  -1.898500        1.0732103E-17
  -1.737000        1.0700226E-17
  -1.575500        1.0667372E-17
  -1.414000        1.0646579E-17
  -1.252500        1.0646996E-17
  -1.091000        1.0670561E-17
 -0.9295000        1.0711242E-17
 -0.7680000        1.0757147E-17
 -0.6065000        1.0794725E-17
 -0.4450000        1.0813534E-17
 -0.2835000        1.0809849E-17
 -0.1220000        1.0787821E-17
  3.9500002E-02    1.0757802E-17
  0.2010000        1.0732480E-17
  0.3625000        1.0722252E-17
  0.5240000        1.0731513E-17
  0.6855000        1.0757187E-17
  0.8470000        1.0789971E-17
   1.008500        1.0817838E-17
   1.170000        1.0830493E-17
   1.331500        1.0823200E-17
   1.493000        1.0798614E-17
   1.654500        1.0765953E-17
   1.816000        1.0737823E-17
   1.977500        1.0725800E-17
   2.139000        1.0736355E-17
   2.300500        1.0768571E-17
   2.462000        1.0814472E-17
   2.623500        1.0861860E-17
   2.785000        1.0898607E-17
   2.946500        1.0916877E-17
   3.108000        1.0915727E-17
   3.269500        1.0901183E-17
   3.431000        1.0883789E-17
   3.592500        1.0874576E-17
   3.754000        1.0880946E-17
   3.915500        1.0903963E-17
   4.077000        1.0938027E-17
   4.238500        1.0972981E-17
   4.400000        1.0997868E-17
   4.561500        1.1004953E-17
   4.723000        1.0992559E-17
   4.884500        1.0965739E-17
   5.046000        1.0934544E-17
   5.207500        1.0910526E-17
   5.369000        1.0902741E-17
   5.530500        1.0914659E-17
   5.692000        1.0943074E-17
   5.853500        1.0979397E-17
   6.015000        1.1012839E-17
   6.176500        1.1034313E-17
   6.338000        1.1039638E-17
   6.499500        1.1030900E-17
   6.661000        1.1015473E-17
   6.822500        1.1003131E-17
   6.984000        1.1002328E-17
   7.145500        1.1017027E-17
   7.307000        1.1045248E-17
   7.468500        1.1079807E-17
   7.630000        1.1110955E-17
   7.791500        1.1129905E-17
   7.953000        1.1131958E-17
   8.114500        1.1118113E-17
   8.276000        1.1094622E-17
   8.437500        1.1070688E-17
   8.599000        1.1055183E-17
   8.760500        1.1053547E-17
   8.922000        1.1065999E-17
   9.083500        1.1087638E-17
   9.245000        1.1110375E-17
   9.406500        1.1125975E-17
   9.568000        1.1129084E-17
   9.729500        1.1119161E-17
   9.891000        1.1100632E-17
   10.05250        1.1081232E-17
   10.21400        1.1069185E-17
   10.37550        1.1070272E-17
   10.53700        1.1085836E-17
   10.69850        1.1112448E-17
   10.86000        1.1143292E-17
   11.02150        1.1170713E-17
   11.18300        1.1188949E-17
   11.34450        1.1196092E-17
   11.50600        1.1194588E-17
   11.66750        1.1190155E-17
   11.82900        1.1189594E-17
   11.99050        1.1198268E-17
   12.15200        1.1218148E-17
   12.31350        1.1247079E-17
   12.47500        1.1279476E-17
   12.63650        1.1308198E-17
   12.79800        1.1326934E-17
   12.95950        1.1332284E-17
   13.12100        1.1324842E-17
   13.28250        1.1308892E-17
   13.44400        1.1290855E-17
   13.60550        1.1277053E-17
   13.76700        1.1271572E-17
   13.92850        1.1275008E-17
   14.09000        1.1284523E-17
   14.25150        1.1295136E-17
   14.41300        1.1301748E-17
   14.57450        1.1301133E-17
   14.73600        1.1293159E-17
   14.89750        1.1280868E-17
   15.05900        1.1269421E-17
   15.22050        1.1264319E-17
   15.38200        1.1269555E-17
   15.54350        1.1286286E-17
   15.70500        1.1312433E-17
   15.86650        1.1343311E-17
   16.02800        1.1373044E-17
   16.18950        1.1396330E-17
   16.35100        1.1409995E-17
   16.51250        1.1413858E-17
   16.67400        1.1410632E-17
   16.83550        1.1404894E-17
   16.99700        1.1401461E-17
   17.15850        1.1403716E-17
   17.32000        1.1412460E-17
   17.48150        1.1425704E-17
   17.64300        1.1439462E-17
   17.80450        1.1449281E-17
   17.96600        1.1451936E-17
   18.12750        1.1446708E-17
   18.28900        1.1435770E-17
   18.45050        1.1423550E-17
   18.61200        1.1415296E-17
   18.77350        1.1415348E-17
   18.93500        1.1425684E-17
   19.09650        1.1445248E-17
   19.25800        1.1470270E-17
   19.41950        1.1495465E-17
   19.58100        1.1515711E-17
   19.74250        1.1527658E-17
   19.90400        1.1530736E-17
   20.06550        1.1527223E-17
   20.22700        1.1521378E-17
   20.38850        1.1517895E-17
   20.55000        1.1520243E-17
   20.71150        1.1529426E-17
   20.87300        1.1543619E-17
   21.03450        1.1558817E-17
   21.19600        1.1570268E-17
   21.35750        1.1574221E-17
   21.51900        1.1569345E-17
   21.68050        1.1557330E-17
   21.84200        1.1542432E-17
   22.00350        1.1530079E-17
   22.16500        1.1525051E-17
   22.32650        1.1529826E-17
   22.48800        1.1543717E-17
   22.64950        1.1563103E-17
   22.81100        1.1582688E-17
   22.97250        1.1597373E-17
   23.13400        1.1604062E-17
   23.29550        1.1602765E-17
   23.45700        1.1596591E-17
   23.61850        1.1590620E-17
   23.78000        1.1590054E-17
   23.94150        1.1598300E-17
   24.10300        1.1615695E-17
   24.26450        1.1639330E-17
   24.42600        1.1664027E-17
   24.58750        1.1684144E-17
   24.74900        1.1695526E-17
   24.91050        1.1696926E-17
   25.07200        1.1690380E-17
   25.23350        1.1680423E-17
   25.39500        1.1672429E-17
   25.55650        1.1670678E-17
   25.71800        1.1676825E-17
   25.87950        1.1689319E-17
   26.04100        1.1703974E-17
   26.20250        1.1715492E-17
   26.36400        1.1719428E-17
   26.52550        1.1713888E-17
   26.68700        1.1700378E-17
   26.84850        1.1683451E-17
   27.01000        1.1669274E-17
   27.17150        1.1663580E-17
   27.33300        1.1669718E-17
   27.49450        1.1687505E-17
   27.65600        1.1713308E-17
   27.81750        1.1741309E-17
   27.97900        1.1765554E-17
   28.14050        1.1782009E-17
   28.30200        1.1789909E-17
   28.46350        1.1791901E-17
   28.62500        1.1792938E-17
   28.78650        1.1798314E-17
   28.94800        1.1811565E-17
   29.10950        1.1832992E-17
   29.27100        1.1859342E-17
   29.43250        1.1884805E-17
   29.59400        1.1902956E-17
   29.75550        1.1908992E-17
   29.91700        1.1901460E-17
   30.07850        1.1882846E-17
   30.24000        1.1858816E-17
   30.40150        1.1836357E-17
   30.56300        1.1821467E-17
   30.72450        1.1817214E-17
   30.88600        1.1822843E-17
   31.04750        1.1834246E-17
   31.20900        1.1845612E-17
   31.37050        1.1851643E-17
   31.53200        1.1849570E-17
   31.69350        1.1840209E-17
   31.85500        1.1827707E-17
   32.01650        1.1818061E-17
   32.17800        1.1816930E-17
   32.33950        1.1827533E-17
   32.50100        1.1849376E-17
   32.66250        1.1878275E-17
   32.82400        1.1907694E-17
   32.98550        1.1930920E-17
   33.14700        1.1943319E-17
   33.30850        1.1943883E-17
   33.47000        1.1935502E-17
   33.63150        1.1923868E-17
   33.79300        1.1915409E-17
   33.95450        1.1914994E-17
   34.11600        1.1924226E-17
   34.27750        1.1940930E-17
   34.43900        1.1960018E-17
   34.60050        1.1975415E-17
   34.76200        1.1982336E-17
   34.92350        1.1979099E-17
   35.08500        1.1967817E-17
   35.24650        1.1953715E-17
   35.40800        1.1943309E-17
   35.56950        1.1942103E-17
   35.73100        1.1952638E-17
   35.89250        1.1973587E-17
   36.05400        1.2000223E-17
   36.21550        1.2026083E-17
   36.37700        1.2045220E-17
   36.53850        1.2054229E-17
   36.70000        1.2053333E-17
   36.86150        1.2046157E-17
   37.02300        1.2038317E-17
   37.18450        1.2035332E-17
   37.34600        1.2040630E-17
   37.50750        1.2054326E-17
   37.66900        1.2073216E-17
   37.83050        1.2091933E-17
   37.99200        1.2104878E-17
   38.15350        1.2108250E-17
   38.31500        1.2101448E-17
   38.47650        1.2087374E-17
   38.63800        1.2071505E-17
   38.79950        1.2060037E-17
   38.96100        1.2057751E-17
   39.12250        1.2066332E-17
   39.28400        1.2083749E-17
   39.44550        1.2104952E-17
   39.60700        1.2123652E-17
   39.76850        1.2134568E-17
   39.93000        1.2135338E-17
   40.09150        1.2127400E-17
   40.25300        1.2115483E-17
   40.41450        1.2105901E-17
   40.57600        1.2104234E-17
   40.73750        1.2113263E-17
   40.89900        1.2131898E-17
   41.06050        1.2155527E-17
   41.22200        1.2177647E-17
   41.38350        1.2192185E-17
   41.54500        1.2195656E-17
   41.70650        1.2188393E-17
   41.86800        1.2174390E-17
   42.02950        1.2159854E-17
   42.19100        1.2150978E-17
   42.35250        1.2151756E-17
   42.51400        1.2162573E-17
   42.67550        1.2180077E-17
   42.83700        1.2198368E-17
   42.99850        1.2211098E-17
   43.16000        1.2213769E-17
   43.32150        1.2205436E-17
   43.48300        1.2189206E-17
   43.64450        1.2171318E-17
   43.80600        1.2159063E-17
   43.96750        1.2158254E-17
   44.12900        1.2171140E-17
   44.29050        1.2195524E-17
   44.45200        1.2225464E-17
   44.61350        1.2253347E-17
   44.77500        1.2272602E-17
   44.93650        1.2280061E-17
   45.09800        1.2277072E-17
   45.25950        1.2268945E-17
   45.42100        1.2262900E-17
   45.58250        1.2265280E-17
   45.74400        1.2279048E-17
   45.90550        1.2302525E-17
   46.06700        1.2329842E-17
   46.22850        1.2352967E-17
   46.39000        1.2364591E-17
   46.55150        1.2360815E-17
   46.71300        1.2342670E-17
   46.87450        1.2315882E-17
   47.03600        1.2288966E-17
   47.19750        1.2270324E-17
   47.35900        1.2265378E-17
   47.52050        1.2274790E-17
   47.68200        1.2294396E-17
   47.84350        1.2316874E-17
   48.00500        1.2334517E-17
   48.16650        1.2342107E-17
   48.32800        1.2338823E-17
   48.48950        1.2328501E-17
   48.65100        1.2318152E-17
   48.81250        1.2315306E-17
   48.97400        1.2325123E-17
   49.13550        1.2348369E-17
   49.29700        1.2380975E-17
   49.45850        1.2415342E-17
   49.62000        1.2442952E-17
   49.78150        1.2457328E-17
   49.94300        1.2456292E-17
   50.10450        1.2442717E-17
   50.26600        1.2423480E-17
   50.42750        1.2406998E-17
   50.58900        1.2400216E-17
   50.75050        1.2406132E-17
   50.91200        1.2422764E-17
   51.07350        1.2443957E-17
   51.23500        1.2461763E-17
   51.39650        1.2469501E-17
   51.55800        1.2464364E-17
   51.71950        1.2448560E-17
   51.88100        1.2428524E-17
   52.04250        1.2412496E-17
   52.20400        1.2407392E-17
   52.36550        1.2416190E-17
   52.52700        1.2436825E-17
   52.68850        1.2463013E-17
   52.85000        1.2486626E-17
   53.01150        1.2500687E-17
   53.17300        1.2501844E-17
   53.33450        1.2491427E-17
   53.49600        1.2474784E-17
   53.65750        1.2459209E-17
   53.81900        1.2451266E-17
   53.98050        1.2454471E-17
   54.14200        1.2468117E-17
   54.30350        1.2487612E-17
   54.46500        1.2506208E-17
   54.62650        1.2517481E-17
   54.78800        1.2517729E-17
   54.94950        1.2507387E-17
   55.11100        1.2490957E-17
   55.27250        1.2475409E-17
   55.43400        1.2467625E-17
   55.59550        1.2471831E-17
   55.75700        1.2488006E-17
   55.91850        1.2511912E-17
   56.08000        1.2536734E-17
   56.24150        1.2555708E-17
   56.40300        1.2564682E-17
   56.56450        1.2563619E-17
   56.72600        1.2556480E-17
   56.88750        1.2549555E-17
   57.04900        1.2548968E-17
   57.21050        1.2558319E-17
   57.37200        1.2577351E-17
   57.53350        1.2602115E-17
   57.69500        1.2626477E-17
   57.85650        1.2644363E-17
   58.01800        1.2651906E-17
   58.17950        1.2648714E-17
   58.34100        1.2637864E-17
   58.50250        1.2624676E-17
   58.66400        1.2614741E-17
   58.82550        1.2611947E-17
   58.98700        1.2617196E-17
   59.14850        1.2628264E-17
   59.31000        1.2640812E-17
   59.47150        1.2650139E-17
   59.63300        1.2653015E-17
   59.79450        1.2648871E-17
   59.95600        1.2639934E-17
   60.11750        1.2630282E-17
   60.27900        1.2624239E-17
   60.44050        1.2624765E-17
   60.60200        1.2632465E-17
   60.76350        1.2645553E-17
   60.92500        1.2660692E-17
   61.08650        1.2674300E-17
   61.24800        1.2683768E-17
   61.40950        1.2688169E-17
   61.57100        1.2688274E-17
   61.73250        1.2686014E-17
   61.89400        1.2683661E-17
   62.05550        1.2683057E-17
   62.21700        1.2685099E-17
   62.37850        1.2689590E-17
   62.54000        1.2695426E-17
   62.70150        1.2701032E-17
   62.86300        1.2704923E-17
   63.02450        1.2706206E-17
   63.18600        1.2704865E-17
   63.34750        1.2701716E-17
   63.50900        1.2698072E-17
   63.67050        1.2695260E-17
   63.83200        1.2694226E-17
   63.99350        1.2695414E-17
   64.15500        1.2698896E-17
   64.31650        1.2704625E-17
   64.47800        1.2712573E-17
   64.63950        1.2722622E-17
   64.80100        1.2734292E-17
   64.96250        1.2746538E-17
   65.12400        1.2757880E-17
   65.28550        1.2766906E-17
   65.44700        1.2772967E-17
   65.60850        1.2776664E-17
   65.77000        1.2779777E-17
   65.93150        1.2784562E-17
   66.09300        1.2792671E-17
   66.25450        1.2804193E-17
   66.41600        1.2817330E-17
   66.57750        1.2828901E-17
   66.73900        1.2835553E-17
   66.90050        1.2835146E-17
   67.06200        1.2827773E-17
   67.22350        1.2815929E-17
   67.38500        1.2803767E-17
   67.54650        1.2795693E-17
   67.70800        1.2794812E-17
   67.86950        1.2801811E-17
   68.03100        1.2814687E-17
   68.19250        1.2829439E-17
   68.35400        1.2841482E-17
   68.51550        1.2847330E-17
   68.67700        1.2845922E-17
   68.83850        1.2839118E-17
   69.00000        1.2831120E-17
   69.16150        1.2826977E-17
   69.32300        1.2830642E-17
   69.48450        1.2843295E-17
   69.64600        1.2862619E-17
   69.80750        1.2883375E-17
   69.96900        1.2899205E-17
   70.13050        1.2905024E-17
   70.29200        1.2899119E-17
   70.45350        1.2884054E-17
   70.61500        1.2865956E-17
   70.77650        1.2852357E-17
   70.93800        1.2849419E-17
   71.09950        1.2859605E-17
   71.26100        1.2880750E-17
   71.42250        1.2906890E-17
   71.58400        1.2930530E-17
   71.74550        1.2945455E-17
   71.90700        1.2949043E-17
   72.06850        1.2943188E-17
   72.23000        1.2933569E-17
   72.39150        1.2927490E-17
   72.55300        1.2931115E-17
   72.71450        1.2947059E-17
   72.87600        1.2973215E-17
   73.03750        1.3003297E-17
   73.19900        1.3028959E-17
   73.36050        1.3042775E-17
   73.52200        1.3041004E-17
   73.68350        1.3025052E-17
   73.84500        1.3001016E-17
   74.00650        1.2977438E-17
   74.16800        1.2962096E-17
   74.32950        1.2959100E-17
   74.49100        1.2967422E-17
   74.65250        1.2981431E-17
   74.81400        1.2993194E-17
   74.97550        1.2995603E-17
   75.13700        1.2985132E-17
   75.29850        1.2963203E-17
   75.46000        1.2935705E-17
   75.62150        1.2910898E-17
   75.78300        1.2896505E-17
   75.94450        1.2897020E-17
   76.10600        1.2912178E-17
   76.26750        1.2937078E-17
   76.42900        1.2963927E-17
   76.59050        1.2984773E-17
   76.75200        1.2994294E-17
   76.91350        1.2991660E-17
   77.07500        1.2980778E-17
   77.23650        1.2968839E-17
   77.39800        1.2963634E-17
   77.55950        1.2970613E-17
   77.72100        1.2990757E-17
   77.88250        1.3020070E-17
   78.04400        1.3050918E-17
   78.20550        1.3074758E-17
   78.36700        1.3085262E-17
   78.52850        1.3080670E-17
   78.69000        1.3064475E-17
   78.85150        1.3044168E-17
   79.01300        1.3028533E-17
   79.17450        1.3024493E-17
   79.33600        1.3034726E-17
   79.49750        1.3056877E-17
   79.65900        1.3084619E-17
   79.82050        1.3110058E-17
   79.98200        1.3126587E-17
   80.14350        1.3131135E-17
   80.30500        1.3125117E-17
   80.46650        1.3113821E-17
   80.62800        1.3104503E-17
   80.78950        1.3103869E-17
   80.95100        1.3115740E-17
   81.11250        1.3139661E-17
   81.27400        1.3170926E-17
   81.43550        1.3202055E-17
   81.59700        1.3225275E-17
   81.75850        1.3235198E-17
   81.92000        1.3230713E-17
   82.08150        1.3215401E-17
   82.24300        1.3196251E-17
   82.40450        1.3181143E-17
   82.56600        1.3176003E-17
   82.72750        1.3182700E-17
   82.88900        1.3198455E-17
   83.05050        1.3216939E-17
   83.21200        1.3230646E-17
   83.37350        1.3233625E-17
   83.53500        1.3223638E-17
   83.69650        1.3202971E-17
   83.85800        1.3177684E-17
   84.01950        1.3155547E-17
   84.18100        1.3143383E-17
   84.34250        1.3144720E-17
   84.50400        1.3158536E-17
   84.66550        1.3179582E-17
   84.82700        1.3200169E-17
   84.98850        1.3212874E-17
   85.15000        1.3213195E-17
   85.31150        1.3201219E-17
   85.47300        1.3181644E-17
   85.63450        1.3162091E-17
   85.79600        1.3150291E-17
   85.95750        1.3151163E-17
   86.11900        1.3164890E-17
   86.28050        1.3186751E-17
   86.44200        1.3208820E-17
   86.60350        1.3222902E-17
   86.76500        1.3223624E-17
   86.92650        1.3210495E-17
   87.08800        1.3188171E-17
   87.24950        1.3164822E-17
   87.41100        1.3149234E-17
   87.57250        1.3147714E-17
   87.73400        1.3161908E-17
   87.89550        1.3188279E-17
   88.05700        1.3219386E-17
   88.21850        1.3246508E-17
   88.38000        1.3262695E-17
   88.54150        1.3265215E-17
   88.70300        1.3256563E-17
   88.86450        1.3243626E-17
   89.02600        1.3235226E-17
   89.18750        1.3238837E-17
   89.34900        1.3257618E-17
   89.51050        1.3288906E-17
   89.67200        1.3324854E-17
   89.83350        1.3355104E-17
   89.99500        1.3370569E-17
   90.15650        1.3366883E-17
   90.31800        1.3346148E-17
   90.47950        1.3316236E-17
   90.64100        1.3287897E-17
   90.80250        1.3270814E-17
   90.96400        1.3270151E-17
   91.12550        1.3284909E-17
   91.28700        1.3308635E-17
   91.44850        1.3332101E-17
   91.61000        1.3346838E-17
   91.77150        1.3348211E-17
   91.93300        1.3336969E-17
   92.09450        1.3318835E-17
   92.25600        1.3302384E-17
   92.41750        1.3295998E-17
   92.57900        1.3304916E-17
   92.74050        1.3329357E-17
   92.90200        1.3364323E-17
   93.06350        1.3401172E-17
   93.22500        1.3430510E-17
   93.38650        1.3445397E-17
   93.54800        1.3443772E-17
   93.70950        1.3429146E-17
   93.87100        1.3409269E-17
   94.03250        1.3393203E-17
   94.19400        1.3387934E-17
   94.35550        1.3395799E-17
   94.51700        1.3413750E-17
   94.67850        1.3434694E-17
   94.84000        1.3450318E-17
   95.00150        1.3454275E-17
   95.16300        1.3444483E-17
   95.32450        1.3423767E-17
   95.48600        1.3398705E-17
   95.64750        1.3377248E-17
   95.80900        1.3366005E-17
   95.97050        1.3368115E-17
   96.13200        1.3382386E-17
   96.29350        1.3403856E-17
   96.45500        1.3425551E-17
   96.61650        1.3440845E-17
   96.77800        1.3445672E-17
   96.93950        1.3439864E-17
   97.10100        1.3427147E-17
   97.26250        1.3413778E-17
   97.42400        1.3406253E-17
   97.58550        1.3408935E-17
   97.74700        1.3422433E-17
   97.90850        1.3443398E-17
   98.07000        1.3465765E-17
   98.23150        1.3482970E-17
   98.39300        1.3490273E-17
   98.55450        1.3486339E-17
   98.71600        1.3473537E-17
   98.87750        1.3456979E-17
   99.03900        1.3442707E-17
   99.20050        1.3435722E-17
   99.36200        1.3438455E-17
   99.52350        1.3450111E-17
   99.68500        1.3467004E-17
   99.84650        1.3483760E-17
   100.0080        1.3495041E-17
   100.1695        1.3497345E-17
   100.3310        1.3490309E-17
   100.4925        1.3477054E-17
   100.6540        1.3463318E-17
   100.8155        1.3455546E-17
   100.9770        1.3458548E-17
   101.1385        1.3473587E-17
   101.3000        1.3497706E-17
   101.4615        1.3524643E-17
   101.6230        1.3547060E-17
   101.7845        1.3559216E-17
   101.9460        1.3559053E-17
   102.1075        1.3548857E-17
   102.2690        1.3534299E-17
   102.4305        1.3522269E-17
   102.5920        1.3518378E-17
   102.7535        1.3525031E-17
   102.9150        1.3540703E-17
   103.0765        1.3560556E-17
   103.2380        1.3578133E-17
   103.3995        1.3587531E-17
   103.5610        1.3585410E-17
   103.7225        1.3572231E-17
   103.8840        1.3552301E-17
   104.0455        1.3532557E-17
   104.2070        1.3520332E-17
   104.3685        1.3520824E-17
   104.5300        1.3535109E-17
   104.6915        1.3559533E-17
   104.8530        1.3586825E-17
   105.0145        1.3608632E-17
   105.1760        1.3618581E-17
   105.3375        1.3614648E-17
   105.4990        1.3599904E-17
   105.6605        1.3581304E-17
   105.8220        1.3567014E-17
   105.9835        1.3563309E-17
   106.1450        1.3572251E-17
   106.3065        1.3590963E-17
   106.4680        1.3612718E-17
   106.6295        1.3629384E-17
   106.7910        1.3634317E-17
   106.9525        1.3624739E-17
   107.1140        1.3602798E-17
   107.2755        1.3574985E-17
   107.4370        1.3550079E-17
   107.5985        1.3536267E-17
   107.7600        1.3538371E-17
   107.9215        1.3556130E-17
   108.0830        1.3584211E-17
   108.2445        1.3614013E-17
   108.4060        1.3636708E-17
   108.5675        1.3646426E-17
   108.7290        1.3642408E-17
   108.8905        1.3629271E-17
   109.0520        1.3615261E-17
   109.2135        1.3609105E-17
   109.3750        1.3616692E-17
   109.5365        1.3638781E-17
   109.6980        1.3670627E-17
   109.8595        1.3703618E-17
   110.0210        1.3728309E-17
   110.1825        1.3737739E-17
   110.3440        1.3729879E-17
   110.5055        1.3708355E-17
   110.6670        1.3681231E-17
   110.8285        1.3658287E-17
   110.9900        1.3647679E-17
   111.1515        1.3653135E-17
   111.3130        1.3672626E-17
   111.4745        1.3699017E-17
   111.6360        1.3722559E-17
   111.7975        1.3734398E-17
   111.9590        1.3729876E-17
   112.1205        1.3710424E-17
   112.2820        1.3683220E-17
   112.4435        1.3658654E-17
   112.6050        1.3646470E-17
   112.7665        1.3652023E-17
   112.9280        1.3674139E-17
   113.0895        1.3705450E-17
   113.2510        1.3735103E-17
   113.4125        1.3752836E-17
   113.5740        1.3752798E-17
   113.7355        1.3735674E-17
   113.8970        1.3708342E-17
   114.0585        1.3681231E-17
   114.2200        1.3664467E-17
   114.3815        1.3664219E-17
   114.5430        1.3680552E-17
   114.7045        1.3707497E-17
   114.8660        1.3735227E-17
   115.0275        1.3753577E-17
   115.1890        1.3755660E-17
   115.3505        1.3740369E-17
   115.5120        1.3712856E-17
   115.6735        1.3682804E-17
   115.8350        1.3661013E-17
   115.9965        1.3655494E-17
   116.1580        1.3668493E-17
   116.3195        1.3695602E-17
   116.4810        1.3727365E-17
   116.6425        1.3752825E-17
   116.8040        1.3763672E-17
   116.9655        1.3757403E-17
   117.1270        1.3738234E-17
   117.2885        1.3715421E-17
   117.4500        1.3699661E-17
   117.6115        1.3698985E-17
   117.7730        1.3715719E-17
   117.9345        1.3745629E-17
   118.0960        1.3779549E-17
   118.2575        1.3806789E-17
   118.4190        1.3819058E-17
   118.5805        1.3813432E-17
   118.7420        1.3793329E-17