  -27.90000        6.7547271E-18
  -27.73850        6.7598511E-18
  -27.57700        6.7676080E-18
  -27.41550        6.7747527E-18
  -27.25400        6.7793485E-18
  -27.09250        6.7818566E-18
  -26.93100        6.7845312E-18
  -26.76950        6.7895948E-18
  -26.60800        6.7974998E-18
  -26.44650        6.8065198E-18
  -26.28500        6.8139309E-18
  -26.12350        6.8179469E-18
  -25.96200        6.8190090E-18
  -25.80050        6.8195247E-18
  -25.63900        6.8222292E-18
  -25.47750        6.8283052E-18
  -25.31600        6.8365820E-18
  -25.15450        6.8443534E-18
  -24.99300        6.8492523E-18
  -24.83150        6.8508757E-18
  -24.67000        6.8510461E-18
  -24.50850        6.8525437E-18
  -24.34700        6.8571896E-18
  -24.18550        6.8646007E-18
  -24.02400        6.8724676E-18
  -23.86250        6.8781408E-18
  -23.70100        6.8804366E-18
  -23.53950        6.8804226E-18
  -23.37800        6.8806513E-18
  -23.21650        6.8833917E-18
  -23.05500        6.8890765E-18
  -22.89350        6.8960368E-18
  -22.73200        6.9017051E-18
  -22.57050        6.9044435E-18
  -22.40900        6.9047347E-18
  -22.24750        6.9048873E-18
  -22.08600        6.9074416E-18
  -21.92450        6.9133721E-18
  -21.76300        6.9213242E-18
  -21.60150        6.9284536E-18
  -21.44000        6.9323137E-18
  -21.27850        6.9325118E-18
  -21.11700        6.9309890E-18
  -20.95550        6.9307168E-18
  -20.79400        6.9336967E-18
  -20.63250        6.9396375E-18
  -20.47100        6.9462401E-18
  -20.30950        6.9508781E-18
  -20.14800        6.9525052E-18
  -19.98650        6.9524175E-18
  -19.82500        6.9533216E-18
  -19.66350        6.9573384E-18
  -19.50200        6.9643686E-18
  -19.34050        6.9720051E-18
  -19.17900        6.9771030E-18
  -19.01750        6.9779443E-18
  -18.85600        6.9754727E-18
  -18.69450        6.9727190E-18
  -18.53300        6.9727876E-18
  -18.37150        6.9768086E-18
  -18.21000        6.9832705E-18
  -18.04850        6.9892039E-18
  -17.88700        6.9923480E-18
  -17.72550        6.9927549E-18
  -17.56400        6.9926830E-18
  -17.40250        6.9948684E-18
  -17.24100        7.0004022E-18
  -17.07950        7.0077691E-18
  -16.91800        7.0137430E-18
  -16.75650        7.0155330E-18
  -16.59500        7.0126850E-18
  -16.43350        7.0073894E-18
  -16.27200        7.0029954E-18
  -16.11050        7.0017795E-18
  -15.94900        7.0035215E-18
  -15.78750        7.0058856E-18
  -15.62600        7.0062835E-18
  -15.46450        7.0038921E-18
  -15.30300        7.0003824E-18
  -15.14150        6.9988513E-18
  -14.98000        7.0017001E-18
  -14.81850        7.0089511E-18
  -14.65700        7.0181775E-18
  -14.49550        7.0260829E-18
  -14.33400        7.0306266E-18
  -14.17250        7.0322297E-18
  -14.01100        7.0332454E-18
  -13.84950        7.0361050E-18
  -13.68800        7.0414502E-18
  -13.52650        7.0475788E-18
  -13.36500        7.0515857E-18
  -13.20350        7.0514169E-18
  -13.04200        7.0473910E-18
  -12.88050        7.0421269E-18
  -12.71900        7.0389025E-18
  -12.55750        7.0395601E-18
  -12.39600        7.0433858E-18
  -12.23450        7.0477186E-18
  -12.07300        7.0498560E-18
  -11.91150        7.0489296E-18
  -11.75000        7.0464514E-18
  -11.58850        7.0451585E-18
  -11.42700        7.0469915E-18
  -11.26550        7.0516461E-18
  -11.10400        7.0567365E-18
  -10.94250        7.0594910E-18
  -10.78100        7.0587822E-18
  -10.61950        7.0560491E-18
  -10.45800        7.0544138E-18
  -10.29650        7.0565744E-18
  -10.13500        7.0629181E-18
  -9.973500        7.0711874E-18
  -9.812000        7.0779570E-18
  -9.650500        7.0808910E-18
  -9.489000        7.0802351E-18
  -9.327500        7.0784922E-18
  -9.166000        7.0785460E-18
  -9.004500        7.0815768E-18
  -8.843000        7.0862437E-18
  -8.681500        7.0897344E-18
  -8.520000        7.0898908E-18
  -8.358500        7.0868947E-18
  -8.197000        7.0832584E-18
  -8.035500        7.0821335E-18
  -7.874000        7.0851072E-18
  -7.712500        7.0910761E-18
  -7.551000        7.0969855E-18
  -7.389500        7.0999261E-18
  -7.228000        7.0990890E-18
  -7.066500        7.0962319E-18
  -6.905000        7.0943253E-18
  -6.743500        7.0953899E-18
  -6.582000        7.0990526E-18
  -6.420500        7.1028477E-18
  -6.259000        7.1040289E-18
  -6.097500        7.1015813E-18
  -5.936000        7.0970244E-18
  -5.774500        7.0934336E-18
  -5.613000        7.0933988E-18
  -5.451500        7.0973503E-18
  -5.290000        7.1033978E-18
  -5.128500        7.1087538E-18
  -4.967000        7.1117068E-18
  -4.805500        7.1127383E-18
  -4.644000        7.1140238E-18
  -4.482500        7.1177088E-18
  -4.321000        7.1241915E-18
  -4.159500        7.1316444E-18
  -3.998000        7.1371170E-18
  -3.836500        7.1384554E-18
  -3.675000        7.1357381E-18
  -3.513500        7.1312407E-18
  -3.352000        7.1279816E-18
  -3.190500        7.1278426E-18
  -3.029000        7.1305343E-18
  -2.867500        7.1340597E-18
  -2.706000        7.1362956E-18
  -2.544500        7.1365661E-18
  -2.383000        7.1361128E-18
  -2.221500        7.1371492E-18
  -2.060000        7.1411933E-18
  -1.898500        7.1478637E-18
  -1.737000        7.1549783E-18
  -1.575500        7.1599166E-18
  -1.414000        7.1613013E-18
  -1.252500        7.1598454E-18
  -1.091000        7.1577957E-18
 -0.9295000        7.1573556E-18
 -0.7680000        7.1592035E-18
 -0.6065000        7.1621185E-18
 -0.4450000        7.1639623E-18
 -0.2835000        7.1633154E-18
 -0.1220000        7.1605899E-18
  3.9500002E-02    7.1578321E-18
  0.2010000        7.1573283E-18
  0.3625000        7.1599894E-18
  0.5240000        7.1646604E-18
  0.6855000        7.1688468E-18
  0.8470000        7.1703845E-18
   1.008500        7.1688981E-18
   1.170000        7.1660509E-18
   1.331500        7.1644065E-18
   1.493000        7.1657101E-18
   1.654500        7.1697534E-18
   1.816000        7.1746040E-18
   1.977500        7.1779954E-18
   2.139000        7.1788888E-18
   2.300500        7.1781145E-18
   2.462000        7.1776753E-18
   2.623500        7.1792329E-18
   2.785000        7.1828700E-18
   2.946500        7.1870100E-18
   3.108000        7.1895238E-18
   3.269500        7.1892484E-18
   3.431000        7.1868289E-18
   3.592500        7.1843043E-18
   3.754000        7.1837435E-18
   3.915500        7.1858768E-18
   4.077000        7.1896835E-18
   4.238500        7.1931916E-18
   4.400000        7.1949121E-18
   4.561500        7.1949063E-18
   4.723000        7.1947351E-18
   4.884500        7.1963514E-18
   5.046000        7.2006957E-18
   5.207500        7.2069691E-18
   5.369000        7.2130596E-18
   5.530500        7.2168316E-18
   5.692000        7.2174089E-18
   5.853500        7.2156065E-18
   6.015000        7.2132689E-18
   6.176500        7.2120033E-18
   6.338000        7.2121927E-18
   6.499500        7.2129206E-18
   6.661000        7.2128437E-18
   6.822500        7.2113407E-18
   6.984000        7.2091429E-18
   7.145500        7.2079716E-18
   7.307000        7.2094299E-18
   7.468500        7.2138951E-18
   7.630000        7.2201717E-18
   7.791500        7.2261605E-18
   7.953000        7.2301177E-18
   8.114500        7.2316695E-18
   8.276000        7.2319094E-18
   8.437500        7.2325265E-18
   8.599000        7.2345638E-18
   8.760500        7.2376567E-18
   8.922000        7.2402937E-18
   9.083500        7.2409166E-18
   9.245000        7.2391150E-18
   9.406500        7.2360759E-18
   9.568000        7.2339269E-18
   9.729500        7.2344133E-18
   9.891000        7.2377725E-18
   10.05250        7.2425858E-18
   10.21400        7.2467168E-18
   10.37550        7.2486995E-18
   10.53700        7.2486300E-18
   10.69850        7.2479641E-18
   10.86000        7.2483802E-18
   11.02150        7.2505243E-18
   11.18300        7.2535476E-18
   11.34450        7.2557603E-18
   11.50600        7.2559349E-18
   11.66750        7.2543169E-18
   11.82900        7.2525864E-18
   11.99050        7.2527568E-18
   12.15200        7.2557727E-18
   12.31350        7.2607871E-18
   12.47500        7.2656575E-18
   12.63650        7.2683318E-18
   12.79800        7.2681755E-18
   12.95950        7.2663358E-18
   13.12100        7.2648883E-18
   13.28250        7.2653771E-18
   13.44400        7.2677578E-18
   13.60550        7.2704875E-18
   13.76700        7.2716612E-18
   13.92850        7.2704031E-18
   14.09000        7.2675228E-18
   14.25150        7.2649917E-18
   14.41300        7.2646079E-18
   14.57450        7.2668015E-18
   14.73600        7.2703832E-18
   14.89750        7.2734173E-18
   15.05900        7.2745712E-18
   15.22050        7.2740088E-18
   15.38200        7.2732047E-18
   15.54350        7.2738251E-18
   15.70500        7.2764721E-18
   15.86650        7.2801895E-18
   16.02800        7.2830813E-18
   16.18950        7.2836289E-18
   16.35100        7.2818041E-18
   16.51250        7.2792035E-18
   16.67400        7.2780818E-18
   16.83550        7.2799272E-18
   16.99700        7.2845371E-18
   17.15850        7.2901868E-18
   17.32000        7.2947851E-18
   17.48150        7.2972153E-18
   17.64300        7.2979540E-18
   17.80450        7.2985628E-18
   17.96600        7.3004339E-18
   18.12750        7.3036814E-18
   18.28900        7.3069744E-18
   18.45050        7.3084517E-18
   18.61200        7.3070770E-18
   18.77350        7.3034795E-18
   18.93500        7.2996745E-18
   19.09650        7.2977993E-18
   19.25800        7.2987539E-18
   19.41950        7.3016689E-18
   19.58100        7.3045830E-18
   19.74250        7.3058718E-18
   19.90400        7.3054011E-18
   20.06550        7.3046087E-18
   20.22700        7.3054118E-18
   20.38850        7.3087462E-18
   20.55000        7.3137597E-18
   20.71150        7.3182712E-18
   20.87300        7.3202118E-18
   21.03450        7.3190347E-18
   21.19600        7.3161180E-18
   21.35750        7.3138631E-18
   21.51900        7.3141088E-18
   21.68050        7.3169634E-18
   21.84200        7.3208520E-18
   22.00350        7.3237132E-18
   22.16500        7.3244709E-18
   22.32650        7.3237289E-18
   22.48800        7.3232186E-18
   22.64950        7.3244213E-18
   22.81100        7.3273933E-18
   22.97250        7.3306524E-18
   23.13400        7.3322232E-18
   23.29550        7.3310842E-18
   23.45700        7.3279782E-18
   23.61850        7.3249771E-18
   23.78000        7.3241127E-18
   23.94150        7.3260144E-18
   24.10300        7.3295192E-18
   24.26450        7.3325219E-18
   24.42600        7.3334591E-18
   24.58750        7.3323994E-18
   24.74900        7.3309717E-18
   24.91050        7.3312000E-18
   25.07200        7.3340670E-18
   25.23350        7.3387960E-18
   25.39500        7.3433414E-18
   25.55650        7.3457410E-18
   25.71800        7.3453878E-18
   25.87950        7.3433811E-18
   26.04100        7.3417342E-18
   26.20250        7.3420295E-18
   26.36400        7.3444506E-18
   26.52550        7.3478173E-18
   26.68700        7.3505569E-18
   26.84850        7.3518704E-18
   27.01000        7.3522642E-18
   27.17150        7.3530657E-18
   27.33300        7.3553223E-18
   27.49450        7.3588659E-18
   27.65600        7.3622731E-18
   27.81750        7.3637612E-18
   27.97900        7.3624228E-18
   28.14050        7.3589188E-18
   28.30200        7.3551345E-18
   28.46350        7.3529904E-18
   28.62500        7.3532221E-18
   28.78650        7.3549484E-18
   28.94800        7.3563405E-18
   29.10950        7.3559195E-18
   29.27100        7.3536141E-18
   29.43250        7.3508265E-18
   29.59400        7.3494791E-18
   29.75550        7.3506950E-18
   29.91700        7.3540186E-18
   30.07850        7.3577062E-18
   30.24000        7.3598792E-18
   30.40150        7.3597435E-18
   30.56300        7.3580412E-18
   30.72450        7.3564621E-18
   30.88600        7.3564621E-18
   31.04750        7.3583216E-18
   31.20900        7.3610960E-18
   31.37050        7.3634369E-18
   31.53200        7.3646611E-18
   31.69350        7.3652650E-18
   31.85500        7.3665124E-18
   32.01650        7.3694092E-18
   32.17800        7.3738271E-18
   32.33950        7.3784428E-18
   32.50100        7.3815613E-18
   32.66250        7.3822635E-18
   32.82400        7.3810575E-18
   32.98550        7.3795860E-18
   33.14700        7.3795661E-18
   33.30850        7.3817011E-18
   33.47000        7.3853018E-18
   33.63150        7.3888487E-18
   33.79300        7.3910755E-18
   33.95450        7.3917951E-18
   34.11600        7.3919242E-18
   34.27750        7.3927125E-18
   34.43900        7.3947763E-18
   34.60050        7.3976102E-18
   34.76200        7.3999387E-18
   34.92350        7.4006038E-18
   35.08500        7.3993680E-18
   35.24650        7.3970651E-18
   35.40800        7.3950079E-18
   35.56950        7.3941013E-18
   35.73100        7.3942676E-18
   35.89250        7.3945951E-18
   36.05400        7.3940434E-18
   36.21550        7.3922203E-18
   36.37700        7.3896743E-18
   36.53850        7.3875219E-18
   36.70000        7.3866939E-18
   36.86150        7.3873168E-18
   37.02300        7.3886436E-18
   37.18450        7.3895584E-18
   37.34600        7.3892971E-18
   37.50750        7.3879099E-18
   37.66900        7.3861926E-18
   37.83050        7.3851661E-18
   37.99200        7.3854713E-18
   38.15350        7.3870571E-18
   38.31500        7.3893260E-18
   38.47650        7.3915867E-18
   38.63800        7.3934826E-18
   38.79950        7.3951312E-18
   38.96100        7.3969005E-18
   39.12250        7.3990272E-18
   39.28400        7.4013433E-18
   39.44550        7.4033302E-18
   39.60700        7.4044494E-18
   39.76850        7.4045403E-18
   39.93000        7.4040093E-18
   40.09150        7.4036553E-18
   40.25300        7.4042417E-18
   40.41450        7.4060615E-18
   40.57600        7.4087780E-18
   40.73750        7.4116524E-18
   40.89900        7.4140182E-18
   41.06050        7.4156974E-18
   41.22200        7.4170936E-18
   41.38350        7.4188853E-18
   41.54500        7.4215133E-18
   41.70650        7.4247988E-18
   41.86800        7.4279462E-18
   42.02950        7.4299455E-18
   42.19100        7.4301408E-18
   42.35250        7.4286022E-18
   42.51400        7.4260834E-18
   42.67550        7.4236011E-18
   42.83700        7.4219103E-18
   42.99850        7.4211849E-18
   43.16000        7.4210947E-18
   43.32150        7.4211559E-18
   43.48300        7.4211121E-18
   43.64450        7.4210806E-18
   43.80600        7.4213735E-18
   43.96750        7.4221733E-18
   44.12900        7.4232950E-18
   44.29050        7.4242297E-18
   44.45200        7.4244555E-18
   44.61350        7.4238037E-18
   44.77500        7.4226250E-18
   44.93650        7.4216406E-18
   45.09800        7.4215414E-18
   45.25950        7.4225919E-18
   45.42100        7.4244895E-18
   45.58250        7.4265723E-18
   45.74400        7.4282639E-18
   45.90550        7.4294740E-18
   46.06700        7.4306826E-18
   46.22850        7.4326455E-18
   46.39000        7.4358632E-18
   46.55150        7.4401596E-18
   46.71300        7.4446503E-18
   46.87450        7.4481634E-18
   47.03600        7.4498889E-18
   47.19750        7.4498649E-18
   47.35900        7.4489790E-18
   47.52050        7.4484603E-18
   47.68200        7.4491593E-18
   47.84350        7.4510792E-18
   48.00500        7.4534474E-18
   48.16650        7.4552763E-18
   48.32800        7.4560208E-18
   48.48950        7.4558686E-18
   48.65100        7.4554748E-18
   48.81250        7.4553350E-18
   48.97400        7.4553052E-18
   49.13550        7.4546435E-18
   49.29700        7.4526062E-18
   49.45850        7.4491717E-18
   49.62000        7.4453212E-18
   49.78150        7.4426006E-18
   49.94300        7.4421953E-18
   50.10450        7.4441342E-18
   50.26600        7.4472071E-18
   50.42750        7.4497127E-18
   50.58900        7.4505547E-18
   50.75050        7.4499583E-18
   50.91200        7.4492801E-18
   51.07350        7.4500344E-18
   51.23500        7.4527840E-18
   51.39650        7.4566626E-18
   51.55800        7.4598721E-18
   51.71950        7.4608134E-18
   51.88100        7.4590838E-18
   52.04250        7.4556866E-18
   52.20400        7.4523390E-18
   52.36550        7.4503827E-18
   52.52700        7.4500808E-18
   52.68850        7.4507342E-18
   52.85000        7.4514613E-18
   53.01150        7.4520197E-18
   53.17300        7.4530140E-18
   53.33450        7.4553317E-18
   53.49600        7.4592459E-18
   53.65750        7.4638831E-18
   53.81900        7.4675467E-18
   53.98050        7.4687296E-18
   54.14200        7.4671472E-18
   54.30350        7.4640593E-18
   54.46500        7.4615744E-18
   54.62650        7.4613767E-18
   54.78800        7.4636796E-18
   54.94950        7.4671372E-18
   55.11100        7.4697842E-18
   55.27250        7.4703988E-18
   55.43400        7.4693748E-18
   55.59550        7.4684938E-18
   55.75700        7.4697437E-18
   55.91850        7.4739449E-18
   56.08000        7.4801132E-18
   56.24150        7.4859994E-18
   56.40300        7.4894471E-18
   56.56450        7.4896829E-18
   56.72600        7.4876852E-18
   56.88750        7.4854138E-18
   57.04900        7.4844592E-18
   57.21050        7.4850498E-18
   57.37200        7.4860764E-18
   57.53350        7.4860929E-18
   57.69500        7.4845055E-18
   57.85650        7.4820811E-18
   58.01800        7.4803688E-18
   58.17950        7.4804672E-18
   58.34100        7.4820571E-18
   58.50250        7.4834707E-18
   58.66400        7.4828322E-18
   58.82550        7.4794688E-18
   58.98700        7.4745794E-18
   59.14850        7.4705833E-18
   59.31000        7.4695476E-18
   59.47150        7.4717587E-18
   59.63300        7.4754661E-18
   59.79450        7.4780552E-18
   59.95600        7.4778649E-18
   60.11750        7.4753991E-18
   60.27900        7.4730565E-18
   60.44050        7.4735115E-18
   60.60200        7.4778385E-18
   60.76350        7.4846677E-18
   60.92500        7.4909658E-18
   61.08650        7.4939280E-18
   61.24800        7.4927054E-18
   61.40950        7.4888094E-18
   61.57100        7.4849837E-18
   61.73250        7.4833624E-18
   61.89400        7.4841978E-18
   62.05550        7.4860061E-18
   62.21700        7.4869234E-18
   62.37850        7.4862327E-18
   62.54000        7.4849299E-18
   62.70150        7.4849365E-18
   62.86300        7.4875611E-18
   63.02450        7.4923811E-18
   63.18600        7.4973831E-18
   63.34750        7.5003097E-18
   63.50900        7.5002509E-18
   63.67050        7.4983162E-18
   63.83200        7.4968802E-18
   63.99350        7.4978893E-18
   64.15500        7.5014247E-18
   64.31650        7.5055507E-18
   64.47800        7.5076037E-18
   64.63950        7.5060610E-18
   64.80100        7.5017068E-18
   64.96250        7.4972607E-18
   65.12400        7.4956733E-18
   65.28550        7.4982161E-18
   65.44700        7.5036250E-18
   65.60850        7.5088850E-18
   65.77000        7.5111193E-18
   65.93150        7.5093292E-18
   66.09300        7.5048658E-18
   66.25450        7.5003684E-18
   66.41600        7.4979588E-18
   66.57750        7.4979547E-18
   66.73900        7.4989415E-18
   66.90050        7.4990887E-18
   67.06200        7.4976925E-18
   67.22350        7.4957941E-18
   67.38500        7.4954194E-18
   67.54650        7.4979720E-18
   67.70800        7.5029839E-18
   67.86950        7.5081886E-18
   68.03100        7.5109447E-18
   68.19250        7.5100538E-18
   68.35400        7.5066831E-18
   68.51550        7.5036755E-18
   68.67700        7.5036622E-18
   68.83850        7.5072555E-18
   69.00000        7.5125743E-18
   69.16150        7.5164868E-18
   69.32300        7.5167267E-18
   69.48450        7.5134560E-18
   69.64600        7.5091787E-18
   69.80750        7.5070636E-18
   69.96900        7.5088189E-18
   70.13050        7.5135743E-18
   70.29200        7.5185366E-18
   70.45350        7.5209255E-18
   70.61500        7.5198328E-18
   70.77650        7.5167193E-18
   70.93800        7.5142443E-18
   71.09950        7.5143022E-18
   71.26100        7.5166936E-18
   71.42250        7.5193687E-18
   71.58400        7.5200503E-18
   71.74550        7.5180320E-18
   71.90700        7.5148176E-18
   72.06850        7.5131144E-18
   72.23000        7.5148796E-18
   72.39150        7.5198179E-18
   72.55300        7.5254328E-18
   72.71450        7.5286489E-18
   72.87600        7.5278912E-18
   73.03750        7.5241589E-18
   73.19900        7.5203332E-18
   73.36050        7.5191652E-18
   73.52200        7.5213374E-18
   73.68350        7.5249530E-18
   73.84500        7.5268183E-18
   74.00650        7.5246676E-18
   74.16800        7.5188046E-18
   74.32950        7.5120300E-18
   74.49100        7.5078966E-18
   74.65250        7.5084615E-18
   74.81400        7.5130317E-18
   74.97550        7.5187153E-18
   75.13700        7.5223590E-18
   75.29850        7.5225360E-18
   75.46000        7.5202480E-18
   75.62150        7.5179443E-18
   75.78300        7.5176267E-18
   75.94450        7.5194051E-18
   76.10600        7.5215384E-18
   76.26750        7.5218668E-18
   76.42900        7.5195838E-18
   76.59050        7.5160071E-18
   76.75200        7.5137580E-18
   76.91350        7.5148995E-18
   77.07500        7.5193571E-18
   77.23650        7.5248058E-18
   77.39800        7.5281625E-18
   77.55950        7.5277042E-18
   77.72100        7.5243219E-18
   77.88250        7.5210024E-18
   78.04400        7.5208345E-18
   78.20550        7.5248744E-18
   78.36700        7.5313562E-18
   78.52850        7.5368140E-18
   78.69000        7.5383848E-18
   78.85150        7.5357386E-18
   79.01300        7.5313049E-18
   79.17450        7.5286439E-18
   79.33600        7.5300501E-18
   79.49750        7.5350198E-18
   79.65900        7.5406008E-18
   79.82050        7.5433619E-18
   79.98200        7.5416232E-18
   80.14350        7.5364450E-18
   80.30500        7.5307400E-18
   80.46650        7.5272063E-18
   80.62800        7.5265453E-18
   80.78950        7.5271972E-18
   80.95100        7.5267116E-18
   81.11250        7.5237214E-18
   81.27400        7.5190544E-18
   81.43550        7.5151782E-18
   81.59700        7.5143775E-18
   81.75850        7.5169964E-18
   81.92000        7.5210678E-18
   82.08150        7.5236254E-18
   82.24300        7.5228255E-18
   82.40450        7.5193464E-18
   82.56600        7.5160211E-18
   82.72750        7.5159004E-18
   82.88900        7.5200594E-18
   83.05050        7.5266967E-18
   83.21200        7.5322190E-18
   83.37350        7.5336186E-18
   83.53500        7.5305373E-18
   83.69650        7.5255709E-18
   83.85800        7.5225807E-18
   84.01950        7.5241159E-18
   84.18100        7.5297068E-18
   84.34250        7.5361845E-18
   84.50400        7.5398191E-18
   84.66550        7.5387909E-18
   84.82700        7.5343374E-18
   84.98850        7.5297978E-18
   85.15000        7.5282601E-18
   85.31150        7.5304521E-18
   85.47300        7.5343564E-18
   85.63450        7.5367577E-18
   85.79600        7.5356212E-18
   85.95750        7.5315969E-18
   86.11900        7.5275752E-18
   86.28050        7.5266463E-18
   86.44200        7.5298888E-18
   86.60350        7.5355922E-18
   86.76500        7.5404519E-18
   86.92650        7.5418953E-18
   87.08800        7.5398704E-18
   87.24950        7.5368181E-18
   87.41100        7.5358247E-18
   87.57250        7.5382814E-18
   87.73400        7.5427366E-18
   87.89550        7.5458104E-18
   88.05700        7.5445795E-18
   88.21850        7.5387562E-18
   88.38000        7.5310990E-18
   88.54150        7.5256892E-18
   88.70300        7.5252094E-18
   88.86450        7.5290997E-18
   89.02600        7.5338965E-18
   89.18750        7.5355657E-18
   89.34900        7.5322545E-18
   89.51050        7.5255775E-18
   89.67200        7.5195317E-18
   89.83350        7.5177789E-18
   89.99500        7.5211761E-18
   90.15650        7.5272418E-18
   90.31800        7.5319319E-18
   90.47950        7.5324837E-18
   90.64100        7.5293123E-18
   90.80250        7.5256545E-18
   90.96400        7.5252078E-18
   91.12550        7.5294463E-18
   91.28700        7.5365170E-18
   91.44850        7.5425165E-18
   91.61000        7.5442222E-18
   91.77150        7.5413444E-18
   91.93300        7.5366791E-18
   92.09450        7.5340520E-18
   92.25600        7.5355360E-18
   92.41750        7.5399581E-18
   92.57900        7.5437838E-18
   92.74050        7.5437631E-18
   92.90200        7.5394088E-18
   93.06350        7.5334978E-18
   93.22500        7.5301667E-18
   93.38650        7.5319419E-18
   93.54800        7.5378446E-18
   93.70950        7.5439633E-18
   93.87100        7.5461603E-18
   94.03250        7.5430046E-18
   94.19400        7.5368528E-18
   94.35550        7.5322636E-18
   94.51700        7.5328394E-18
   94.67850        7.5387066E-18
   94.84000        7.5464151E-18
   95.00150        7.5513235E-18
   95.16300        7.5507999E-18
   95.32450        7.5459758E-18
   95.48600        7.5408382E-18
   95.64750        7.5393352E-18
   95.80900        7.5425529E-18
   95.97050        7.5479801E-18
   96.13200        7.5513492E-18
   96.29350        7.5497246E-18
   96.45500        7.5436283E-18
   96.61650        7.5366899E-18
   96.77800        7.5330776E-18
   96.93950        7.5345566E-18
   97.10100        7.5392657E-18
   97.26250        7.5430757E-18
   97.42400        7.5425654E-18
   97.58550        7.5374865E-18
   97.74700        7.5309757E-18
   97.90850        7.5273667E-18
   98.07000        7.5291584E-18
   98.23150        7.5352878E-18
   98.39300        7.5419144E-18
   98.55450        7.5451453E-18
   98.71600        7.5437515E-18
   98.87750        7.5399333E-18
   99.03900        7.5376114E-18
   99.20050        7.5394800E-18
   99.36200        7.5449385E-18
   99.52350        7.5504285E-18
   99.68500        7.5519580E-18
   99.84650        7.5480223E-18
   100.0080        7.5408299E-18
   100.1695        7.5349139E-18
   100.3310        7.5340520E-18
   100.4925        7.5386420E-18
   100.6540        7.5454042E-18
   100.8155        7.5496187E-18
   100.9770        7.5483763E-18
   101.1385        7.5425736E-18
   101.3000        7.5362573E-18
   101.4615        7.5338030E-18
   101.6230        7.5369050E-18
   101.7845        7.5434877E-18
   101.9460        7.5492572E-18
   102.1075        7.5507553E-18
   102.2690        7.5477270E-18
   102.4305        7.5431345E-18
   102.5920        7.5408680E-18
   102.7535        7.5428540E-18
   102.9150        7.5476600E-18
   103.0765        7.5516106E-18
   103.2380        7.5515477E-18
   103.3995        7.5472373E-18
   103.5610        7.5416017E-18
   103.7225        7.5386371E-18
   103.8840        7.5404883E-18
   104.0455        7.5458311E-18
   104.2070        7.5507470E-18
   104.3685        7.5514881E-18
   104.5300        7.5471579E-18
   104.6915        7.5404006E-18
   104.8530        7.5355922E-18
   105.0145        7.5358164E-18
   105.1760        7.5407596E-18
   105.3375        7.5469792E-18
   105.4990        7.5503169E-18
   105.6605        7.5487452E-18
   105.8220        7.5436498E-18
   105.9835        7.5387314E-18
   106.1450        7.5373756E-18
   106.3065        7.5403874E-18
   106.4680        7.5456358E-18
   106.6295        7.5497784E-18
   106.7910        7.5507073E-18
   106.9525        7.5489652E-18
   107.1140        7.5471314E-18
   107.2755        7.5477129E-18
   107.4370        7.5511217E-18
   107.5985        7.5552320E-18
   107.7600        7.5568557E-18
   107.9215        7.5540756E-18
   108.0830        7.5477691E-18
   108.2445        7.5412088E-18
   108.4060        7.5379877E-18
   108.5675        7.5396702E-18
   108.7290        7.5447681E-18
   108.8905        7.5497271E-18
   109.0520        7.5512350E-18
   109.2135        7.5483151E-18
   109.3750        7.5428226E-18
   109.5365        7.5381035E-18
   109.6980        7.5367825E-18
   109.8595        7.5391971E-18
   110.0210        7.5434612E-18
   110.1825        7.5469957E-18
   110.3440        7.5483730E-18
   110.5055        7.5481414E-18
   110.6670        7.5481414E-18
   110.8285        7.5498743E-18
   110.9900        7.5531954E-18
   111.1515        7.5563131E-18
   111.3130        7.5571246E-18
   111.4745        7.5548771E-18
   111.6360        7.5509265E-18
   111.7975        7.5479520E-18
   111.9590        7.5481298E-18
   112.1205        7.5515378E-18
   112.2820        7.5559243E-18
   112.4435        7.5580940E-18
   112.6050        7.5559682E-18
   112.7665        7.5499736E-18
   112.9280        7.5428044E-18
   113.0895        7.5377379E-18
   113.2510        7.5366353E-18
   113.4125        7.5389406E-18
   113.5740        7.5422692E-18
   113.7355        7.5441031E-18
   113.8970        7.5433934E-18
   114.0585        7.5410301E-18
   114.2200        7.5389787E-18
   114.3815        7.5387893E-18
   114.5430        7.5405727E-18
   114.7045        7.5430906E-18
   114.8660        7.5447929E-18
   115.0275        7.5449840E-18
   115.1890        7.5442644E-18
   115.3505        7.5439707E-18
   115.5120        7.5450891E-18
   115.6735        7.5474672E-18
   115.8350        7.5498892E-18
   115.9965        7.5509662E-18
   116.1580        7.5501671E-18
   116.3195        7.5482630E-18
   116.4810        7.5468427E-18
   116.6425        7.5472364E-18
   116.8040        7.5495724E-18
   116.9655        7.5526082E-18
   117.1270        7.5544809E-18
   117.2885        7.5538812E-18
   117.4500        7.5509141E-18
   117.6115        7.5470768E-18
   117.7730        7.5443835E-18
   117.9345        7.5441684E-18
   118.0960        7.5463373E-18
   118.2575        7.5494938E-18
   118.4190        7.5518653E-18
   118.5805        7.5524047E-18
   118.7420        7.5513765E-18