  -27.90000       -2.9374880E-20
  -27.73850       -2.9442250E-20
  -27.57700       -2.9553076E-20
  -27.41550       -2.9671489E-20
  -27.25400       -2.9762081E-20
  -27.09250       -2.9806161E-20
  -26.93100       -2.9808455E-20
  -26.76950       -2.9794742E-20
  -26.60800       -2.9798962E-20
  -26.44650       -2.9849433E-20
  -26.28500       -2.9954934E-20
  -26.12350       -3.0097807E-20
  -25.96200       -3.0243197E-20
  -25.80050       -3.0352055E-20
  -25.63900       -3.0402451E-20
  -25.47750       -3.0395824E-20
  -25.31600       -3.0358175E-20
  -25.15450       -3.0328309E-20
  -24.99300       -3.0339951E-20
  -24.83150       -3.0406310E-20
  -24.67000       -3.0514596E-20
  -24.50850       -3.0632728E-20
  -24.34700       -3.0727104E-20
  -24.18550       -3.0776583E-20
  -24.02400       -3.0780240E-20
  -23.86250       -3.0758653E-20
  -23.70100       -3.0739408E-20
  -23.53950       -3.0744752E-20
  -23.37800       -3.0782363E-20
  -23.21650       -3.0843558E-20
  -23.05500       -3.0909361E-20
  -22.89350       -3.0963862E-20
  -22.73200       -3.0999534E-20
  -22.57050       -3.1017182E-20
  -22.40900       -3.1024272E-20
  -22.24750       -3.1024524E-20
  -22.08600       -3.1019296E-20
  -21.92450       -3.1006074E-20
  -21.76300       -3.0981194E-20
  -21.60150       -3.0950113E-20
  -21.44000       -3.0927214E-20
  -21.27850       -3.0928383E-20
  -21.11700       -3.0962679E-20
  -20.95550       -3.1021861E-20
  -20.79400       -3.1077835E-20
  -20.63250       -3.1091784E-20
  -20.47100       -3.1035264E-20
  -20.30950       -3.0907733E-20
  -20.14800       -3.0749425E-20
  -19.98650       -3.0635293E-20
  -19.82500       -3.0651313E-20
  -19.66350       -3.0860923E-20
  -19.50200       -3.1271101E-20
  -19.34050       -3.1816297E-20
  -19.17900       -3.2366799E-20
  -19.01750       -3.2763558E-20
  -18.85600       -3.2869514E-20
  -18.69450       -3.2617496E-20
  -18.53300       -3.2033086E-20
  -18.37150       -3.1228017E-20
  -18.21000       -3.0358701E-20
  -18.04850       -2.9576040E-20
  -17.88700       -2.8979652E-20
  -17.72550       -2.8595915E-20
  -17.56400       -2.8383242E-20
  -17.40250       -2.8268374E-20
  -17.24100       -2.8181963E-20
  -17.07950       -2.8093299E-20
  -16.91800       -2.8022911E-20
  -16.75650       -2.8030007E-20
  -16.59500       -2.8179594E-20
  -16.43350       -2.8513032E-20
  -16.27200       -2.9027325E-20
  -16.11050       -2.9672953E-20
  -15.94900       -3.0372973E-20
  -15.78750       -3.1050202E-20
  -15.62600       -3.1655821E-20
  -15.46450       -3.2189520E-20
  -15.30300       -3.2702279E-20
  -15.14150       -3.3279809E-20
  -14.98000       -3.4011783E-20
  -14.81850       -3.4951586E-20
  -14.65700       -3.6086006E-20
  -14.49550       -3.7327142E-20
  -14.33400       -3.8524124E-20
  -14.17250       -3.9502976E-20
  -14.01100       -4.0105044E-20
  -13.84950       -4.0226918E-20
  -13.68800       -3.9836824E-20
  -13.52650       -3.8977025E-20
  -13.36500       -3.7745547E-20
  -13.20350       -3.6272338E-20
  -13.04200       -3.4689447E-20
  -12.88050       -3.3107765E-20
  -12.71900       -3.1600274E-20
  -12.55750       -3.0190881E-20
  -12.39600       -2.8857026E-20
  -12.23450       -2.7536109E-20
  -12.07300       -2.6159878E-20
  -11.91150       -2.4690616E-20
  -11.75000       -2.3167479E-20
  -11.58850       -2.1727813E-20
  -11.42700       -2.0588988E-20
  -11.26550       -1.9986008E-20
  -11.10400       -2.0080948E-20
  -10.94250       -2.0887430E-20
  -10.78100       -2.2241389E-20
  -10.61950       -2.3837825E-20
  -10.45800       -2.5330233E-20
  -10.29650       -2.6453810E-20
  -10.13500       -2.7127786E-20
  -9.973500       -2.7486168E-20
  -9.812000       -2.7826059E-20
  -9.650500       -2.8482969E-20
  -9.489000       -2.9683783E-20
  -9.327500       -3.1438834E-20
  -9.166000       -3.3518480E-20
  -9.004500       -3.5524809E-20
  -8.843000       -3.7036282E-20
  -8.681500       -3.7764175E-20
  -8.520000       -3.7666251E-20
  -8.358500       -3.6964482E-20
  -8.197000       -3.6067188E-20
  -8.035500       -3.5406607E-20
  -7.874000       -3.5262244E-20
  -7.712500       -3.5630456E-20
  -7.551000       -3.6207347E-20
  -7.389500       -3.6501823E-20
  -7.228000       -3.6052589E-20
  -7.066500       -3.4654783E-20
  -6.905000       -3.2501619E-20
  -6.743500       -3.0169044E-20
  -6.582000       -2.8429461E-20
  -6.420500       -2.7960740E-20
  -6.259000       -2.9066842E-20
  -6.097500       -3.1523226E-20
  -5.936000       -3.4637038E-20
  -5.774500       -3.7496304E-20
  -5.613000       -3.9321753E-20
  -5.451500       -3.9770482E-20
  -5.290000       -3.9058606E-20
  -5.128500       -3.7844557E-20
  -4.967000       -3.6928784E-20
  -4.805500       -3.6903467E-20
  -4.644000       -3.7905758E-20
  -4.482500       -3.9572915E-20
  -4.321000       -4.1212087E-20
  -4.159500       -4.2102970E-20
  -3.998000       -4.1799692E-20
  -3.836500       -4.0311119E-20
  -3.675000       -3.8084678E-20
  -3.513500       -3.5808057E-20
  -3.352000       -3.4115626E-20
  -3.190500       -3.3327288E-20
  -3.029000       -3.3322651E-20
  -2.867500       -3.3608859E-20
  -2.706000       -3.3542830E-20
  -2.544500       -3.2616229E-20
  -2.383000       -3.0684449E-20
  -2.221500       -2.8045006E-20
  -2.060000       -2.5335190E-20
  -1.898500       -2.3278039E-20
  -1.737000       -2.2387488E-20
  -1.575500       -2.2749155E-20
  -1.414000       -2.3982124E-20
  -1.252500       -2.5407084E-20
  -1.091000       -2.6351090E-20
 -0.9295000       -2.6445646E-20
 -0.7680000       -2.5787236E-20
 -0.6065000       -2.4872995E-20
 -0.4450000       -2.4351499E-20
 -0.2835000       -2.4708160E-20
 -0.1220000       -2.6030149E-20
  3.9500002E-02   -2.7970069E-20
  0.2010000       -2.9911914E-20
  0.3625000       -3.1262655E-20
  0.5240000       -3.1727310E-20
  0.6855000       -3.1428010E-20
  0.8470000       -3.0816717E-20
   1.008500       -3.0424598E-20
   1.170000       -3.0582806E-20
   1.331500       -3.1260693E-20
   1.493000       -3.2096220E-20
   1.654500       -3.2603582E-20
   1.816000       -3.2439742E-20
   1.977500       -3.1600952E-20
   2.139000       -3.0452137E-20
   2.300500       -2.9578935E-20
   2.462000       -2.9533553E-20
   2.623500       -3.0582499E-20
   2.785000       -3.2574848E-20
   2.946500       -3.4986522E-20
   3.108000       -3.7128684E-20
   3.269500       -3.8440308E-20
   3.431000       -3.8732264E-20
   3.592500       -3.8281705E-20
   3.754000       -3.7723691E-20
   3.915500       -3.7781578E-20
   4.077000       -3.8953017E-20
   4.238500       -4.1273518E-20
   4.400000       -4.4268383E-20
   4.561500       -4.7124512E-20
   4.723000       -4.9015508E-20
   4.884500       -4.9461523E-20
   5.046000       -4.8549156E-20
   5.207500       -4.6908385E-20
   5.369000       -4.5429628E-20
   5.530500       -4.4842753E-20
   5.692000       -4.5351534E-20
   5.853500       -4.6508178E-20
   6.015000       -4.7401895E-20
   6.176500       -4.7082490E-20
   6.338000       -4.5028074E-20
   6.499500       -4.1428856E-20
   6.661000       -3.7154714E-20
   6.822500       -3.3402629E-20
   6.984000       -3.1178512E-20
   7.145500       -3.0848751E-20
   7.307000       -3.1965364E-20
   7.468500       -3.3461443E-20
   7.630000       -3.4127197E-20
   7.791500       -3.3146668E-20
   7.953000       -3.0463114E-20
   8.114500       -2.6789672E-20
   8.276000       -2.3287223E-20
   8.437500       -2.1051551E-20
   8.599000       -2.0645182E-20
   8.760500       -2.1869331E-20
   8.922000       -2.3867351E-20
   9.083500       -2.5503416E-20
   9.245000       -2.5859185E-20
   9.406500       -2.4637088E-20
   9.568000       -2.2298773E-20
   9.729500       -1.9881911E-20
   9.891000       -1.8558776E-20
   10.05250       -1.9139854E-20
   10.21400       -2.1719501E-20
   10.37550       -2.5632004E-20
   10.53700       -2.9731191E-20
   10.69850       -3.2878038E-20
   10.86000       -3.4433884E-20
   11.02150       -3.4544578E-20
   11.18300       -3.4079276E-20
   11.34450       -3.4237590E-20
   11.50600       -3.5971681E-20
   11.66750       -3.9487444E-20
   11.82900       -4.4069983E-20
   11.99050       -4.8330076E-20
   12.15200       -5.0793439E-20
   12.31350       -5.0568191E-20
   12.47500       -4.7782993E-20
   12.63650       -4.3579015E-20
   12.79800       -3.9650221E-20
   12.95950       -3.7520218E-20
   13.12100       -3.7882226E-20
   13.28250       -4.0294553E-20
   13.44400       -4.3379723E-20
   13.60550       -4.5435331E-20
   13.76700       -4.5203495E-20
   13.92850       -4.2437093E-20
   14.09000       -3.8016158E-20
   14.25150       -3.3553764E-20
   14.41300       -3.0676193E-20
   14.57450       -3.0307604E-20
   14.73600       -3.2274717E-20
   14.89750       -3.5397853E-20
   15.05900       -3.8015563E-20
   15.22050       -3.8711571E-20
   15.38200       -3.6935104E-20
   15.54350       -3.3256535E-20
   15.70500       -2.9150527E-20
   15.86650       -2.6394624E-20
   16.02800       -2.6324968E-20
   16.18950       -2.9261139E-20
   16.35100       -3.4344733E-20
   16.51250       -3.9865747E-20
   16.67400       -4.3951712E-20
   16.83550       -4.5336293E-20
   16.99700       -4.3885718E-20
   17.15850       -4.0662641E-20
   17.32000       -3.7488433E-20
   17.48150       -3.6174634E-20
   17.64300       -3.7727688E-20
   17.80450       -4.1878044E-20
   17.96600       -4.7143951E-20
   18.12750       -5.1434226E-20
   18.28900       -5.2937737E-20
   18.45050       -5.0921442E-20
   18.61200       -4.6057491E-20
   18.77350       -4.0146765E-20
   18.93500       -3.5339990E-20
   19.09650       -3.3213912E-20
   19.25800       -3.4108696E-20
   19.41950       -3.7004552E-20
   19.58100       -4.0004432E-20
   19.74250       -4.1186302E-20
   19.90400       -3.9464357E-20
   20.06550       -3.5073847E-20
   20.22700       -2.9471001E-20
   20.38850       -2.4700876E-20
   20.55000       -2.2514850E-20
   20.71150       -2.3642431E-20
   20.87300       -2.7511410E-20
   21.03450       -3.2535986E-20
   21.19600       -3.6815340E-20
   21.35750       -3.8930089E-20
   21.51900       -3.8515420E-20
   21.68050       -3.6367975E-20
   21.84200       -3.4065931E-20
   22.00350       -3.3253084E-20
   22.16500       -3.4894065E-20
   22.32650       -3.8817589E-20
   22.48800       -4.3741621E-20
   22.64950       -4.7800551E-20
   22.81100       -4.9334370E-20
   22.97250       -4.7617828E-20
   23.13400       -4.3200289E-20
   23.29550       -3.7696104E-20
   23.45700       -3.3117798E-20
   23.61850       -3.1023357E-20
   23.78000       -3.1857989E-20
   23.94150       -3.4777562E-20
   24.10300       -3.8060331E-20
   24.26450       -3.9925985E-20
   24.42600       -3.9394312E-20
   24.58750       -3.6776156E-20
   24.74900       -3.3543570E-20
   24.91050       -3.1627622E-20
   25.07200       -3.2463950E-20
   25.23350       -3.6262296E-20
   25.39500       -4.1837141E-20
   25.55650       -4.7105884E-20
   25.71800       -5.0009883E-20
   25.87950       -4.9446136E-20
   26.04100       -4.5768663E-20
   26.20250       -4.0633823E-20
   26.36400       -3.6257155E-20
   26.52550       -3.4415838E-20
   26.68700       -3.5657982E-20
   26.84850       -3.9079764E-20
   27.01000       -4.2765735E-20
   27.17150       -4.4689305E-20
   27.33300       -4.3652179E-20
   27.49450       -3.9840288E-20
   27.65600       -3.4760831E-20
   27.81750       -3.0598655E-20
   27.97900       -2.9277938E-20
   28.14050       -3.1624989E-20
   28.30200       -3.6986557E-20
   28.46350       -4.3463986E-20
   28.62500       -4.8679938E-20
   28.78650       -5.0775073E-20
   28.94800       -4.9214794E-20
   29.10950       -4.5048463E-20
   29.27100       -4.0488791E-20
   29.43250       -3.7965916E-20
   29.59400       -3.9051245E-20
   29.75550       -4.3717888E-20
   29.91700       -5.0276500E-20
   30.07850       -5.6043386E-20
   30.24000       -5.8481753E-20
   30.40150       -5.6336170E-20
   30.56300       -5.0251222E-20
   30.72450       -4.2559609E-20
   30.88600       -3.6301635E-20
   31.04750       -3.3879557E-20
   31.20900       -3.5961755E-20
   31.37050       -4.1156963E-20
   31.53200       -4.6630168E-20
   31.69350       -4.9391668E-20
   31.85500       -4.7673540E-20
   32.01650       -4.1768824E-20
   32.17800       -3.3940710E-20
   32.33950       -2.7450144E-20
   32.50100       -2.5130707E-20
   32.66250       -2.8142197E-20
   32.82400       -3.5454774E-20
   32.98550       -4.4287935E-20
   33.14700       -5.1307700E-20
   33.30850       -5.4043441E-20
   33.47000       -5.1909904E-20
   33.63150       -4.6391976E-20
   33.79300       -4.0341692E-20
   33.95450       -3.6712524E-20
   34.11600       -3.7282452E-20
   34.27750       -4.1904508E-20
   34.43900       -4.8582314E-20
   34.60050       -5.4329830E-20
   34.76200       -5.6459917E-20
   34.92350       -5.3767777E-20
   35.08500       -4.7113300E-20
   35.24650       -3.9131207E-20
   35.40800       -3.3160540E-20
   35.56950       -3.1825984E-20
   35.73100       -3.5876959E-20
   35.89250       -4.3792764E-20
   36.05400       -5.2356284E-20
   36.21550       -5.7981264E-20
   36.37700       -5.8231350E-20
   36.53850       -5.2885528E-20
   36.70000       -4.4054916E-20
   36.86150       -3.5280319E-20
   37.02300       -2.9969762E-20
   37.18450       -2.9869628E-20
   37.34600       -3.4268897E-20
   37.50750       -4.0317248E-20
   37.66900       -4.4341711E-20
   37.83050       -4.3563706E-20
   37.99200       -3.7427564E-20
   38.15350       -2.7919491E-20
   38.31500       -1.8739859E-20
   38.47650       -1.3692290E-20
   38.63800       -1.5016721E-20
   38.79950       -2.2411161E-20
   38.96100       -3.3152591E-20
   39.12250       -4.3269889E-20
   39.28400       -4.9239370E-20
   39.44550       -4.9462169E-20
   39.60700       -4.4892339E-20
   39.76850       -3.8554394E-20
   39.93000       -3.4181940E-20
   40.09150       -3.4581588E-20
   40.25300       -4.0424249E-20
   40.41450       -4.9961871E-20
   40.57600       -5.9775089E-20
   40.73750       -6.6214496E-20
   40.89900       -6.6946939E-20
   41.06050       -6.1956364E-20
   41.22200       -5.3587339E-20
   41.38350       -4.5589807E-20
   41.54500       -4.1543967E-20
   41.70650       -4.3320903E-20
   41.86800       -5.0243736E-20
   42.02950       -5.9331455E-20
   42.19100       -6.6548096E-20
   42.35250       -6.8537258E-20
   42.51400       -6.4087653E-20
   42.67550       -5.4688930E-20
   42.83700       -4.3920030E-20
   42.99850       -3.5917665E-20
   43.16000       -3.3585068E-20
   43.32150       -3.7325982E-20
   43.48300       -4.4884520E-20
   43.64450       -5.2366927E-20
   43.80600       -5.6001323E-20
   43.96750       -5.3837183E-20
   44.12900       -4.6618452E-20
   44.29050       -3.7428349E-20
   44.45200       -3.0287018E-20
   44.61350       -2.8348194E-20
   44.77500       -3.2505083E-20
   44.93650       -4.1010781E-20
   45.09800       -5.0261727E-20
   45.25950       -5.6370523E-20
   45.42100       -5.6836045E-20
   45.58250       -5.1590541E-20
   45.74400       -4.2984825E-20
   45.90550       -3.4740623E-20
   46.06700       -3.0346584E-20
   46.22850       -3.1590651E-20
   46.39000       -3.7859759E-20
   46.55150       -4.6474432E-20
   46.71300       -5.3889563E-20
   46.87450       -5.7222132E-20
   47.03600       -5.5460011E-20
   47.19750       -4.9854945E-20
   47.35900       -4.3335029E-20
   47.52050       -3.9209938E-20
   47.68200       -3.9694905E-20
   47.84350       -4.4904207E-20
   48.00500       -5.2754752E-20
   48.16650       -5.9844197E-20
   48.32800       -6.2934945E-20
   48.48950       -6.0396101E-20
   48.65100       -5.2959654E-20
   48.81250       -4.3442398E-20
   48.97400       -3.5549269E-20
   49.13550       -3.2270713E-20
   49.29700       -3.4595142E-20
   49.45850       -4.1088643E-20
   49.62000       -4.8553596E-20
   49.78150       -5.3471359E-20
   49.94300       -5.3589400E-20
   50.10450       -4.8933052E-20
   50.26600       -4.1774922E-20
   50.42750       -3.5571687E-20
   50.58900       -3.3357399E-20
   50.75050       -3.6335850E-20
   50.91200       -4.3322967E-20
   51.07350       -5.1274965E-20
   51.23500       -5.6654589E-20
   51.39650       -5.7017773E-20
   51.55800       -5.2107125E-20
   51.71950       -4.3983578E-20
   51.88100       -3.6146077E-20
   52.04250       -3.2024795E-20
   52.20400       -3.3511785E-20
   52.36550       -4.0158184E-20
   52.52700       -4.9385481E-20
   52.68850       -5.7606583E-20
   52.85000       -6.1766410E-20
   53.01150       -6.0626109E-20
   53.17300       -5.5253164E-20
   53.33450       -4.8516841E-20
   53.49600       -4.3812975E-20
   53.65750       -4.3564398E-20
   53.81900       -4.8131268E-20
   53.98050       -5.5602447E-20
   54.14200       -6.2576905E-20
   54.30350       -6.5633899E-20
   54.46500       -6.2861500E-20
   54.62650       -5.4777167E-20
   54.78800       -4.4200535E-20
   54.94950       -3.5105849E-20
   55.11100       -3.0937162E-20
   55.27250       -3.3122700E-20
   55.43400       -4.0449074E-20
   55.59550       -4.9588667E-20
   55.75700       -5.6557912E-20
   55.91850       -5.8470289E-20
   56.08000       -5.4806344E-20
   56.24150       -4.7628665E-20
   56.40300       -4.0632301E-20
   56.56450       -3.7455371E-20
   56.72600       -4.0008448E-20
   56.88750       -4.7598305E-20
   57.04900       -5.7226882E-20
   57.21050       -6.4932256E-20
   57.37200       -6.7543368E-20
   57.53350       -6.4065823E-20
   57.69500       -5.6094187E-20
   57.85650       -4.7089024E-20
   58.01800       -4.0867621E-20
   58.17950       -3.9971332E-20
   58.34100       -4.4598974E-20
   58.50250       -5.2567412E-20
   58.66400       -6.0277827E-20
   58.82550       -6.4275339E-20
   58.98700       -6.2717306E-20
   59.14850       -5.6137259E-20
   59.31000       -4.7186589E-20
   59.47150       -3.9483922E-20
   59.63300       -3.6074759E-20
   59.79450       -3.8145641E-20
   59.95600       -4.4543766E-20
   60.11750       -5.2288536E-20
   60.27900       -5.7875042E-20
   60.44050       -5.8818616E-20
   60.60200       -5.4774556E-20
   60.76350       -4.7731291E-20
   60.92500       -4.1156530E-20
   61.08650       -3.8446243E-20
   61.24800       -4.1361318E-20
   61.40950       -4.9159706E-20
   61.57100       -5.8837615E-20
   61.73250       -6.6395778E-20
   61.89400       -6.8581855E-20
   62.05550       -6.4329377E-20
   62.21700       -5.5249681E-20
   62.37850       -4.4943569E-20
   62.54000       -3.7428844E-20
   62.70150       -3.5383236E-20
   62.86300       -3.8987219E-20
   63.02450       -4.5900407E-20
   63.18600       -5.2372579E-20
   63.34750       -5.4982469E-20
   63.50900       -5.2210490E-20
   63.67050       -4.5124654E-20
   63.83200       -3.6906346E-20
   63.99350       -3.1428414E-20
   64.15500       -3.1547547E-20
   64.31650       -3.7846428E-20
   64.47800       -4.8364633E-20
   64.63950       -5.9414458E-20
   64.80100       -6.7120117E-20
   64.96250       -6.9023686E-20
   65.12400       -6.5083702E-20
   65.28550       -5.7646495E-20
   65.44700       -5.0407808E-20
   65.60850       -4.6819014E-20
   65.77000       -4.8608225E-20
   65.93150       -5.5041839E-20
   66.09300       -6.3236497E-20
   66.25450       -6.9393280E-20
   66.41600       -7.0443560E-20
   66.57750       -6.5421372E-20
   66.73900       -5.5973257E-20
   66.90050       -4.5756691E-20
   67.06200       -3.8936542E-20
   67.22350       -3.8400542E-20
   67.38500       -4.4461934E-20
   67.54650       -5.4643687E-20
   67.70800       -6.4681504E-20
   67.86950       -7.0331458E-20
   68.03100       -6.9208619E-20
   68.19250       -6.1836171E-20
   68.35400       -5.1432297E-20
   68.51550       -4.2509235E-20
   68.67700       -3.8892633E-20
   68.83850       -4.2024320E-20
   69.00000       -5.0312650E-20
   69.16150       -5.9822852E-20
   69.32300       -6.6022991E-20
   69.48450       -6.5806328E-20
   69.64600       -5.8883505E-20
   69.80750       -4.7927459E-20
   69.96900       -3.7406791E-20
   70.13050       -3.1645342E-20
   70.29200       -3.2960340E-20
   70.45350       -4.0687961E-20
   70.61500       -5.1500824E-20
   70.77650       -6.0850889E-20
   70.93800       -6.4917115E-20
   71.09950       -6.2223860E-20
   71.26100       -5.4253103E-20
   71.42250       -4.4792131E-20
   71.58400       -3.8296100E-20
   71.74550       -3.7966301E-20
   71.90700       -4.4362304E-20
   72.06850       -5.5135995E-20
   72.23000       -6.6000127E-20
   72.39150       -7.2529956E-20
   72.55300       -7.2038953E-20
   72.71450       -6.4739123E-20
   72.87600       -5.3689075E-20
   73.03750       -4.3521009E-20
   73.19900       -3.8472245E-20
   73.36050       -4.0542419E-20
   73.52200       -4.8599223E-20
   73.68350       -5.8849461E-20
   73.84500       -6.6505832E-20
   74.00650       -6.7930715E-20
   74.16800       -6.2294959E-20
   74.32950       -5.1998150E-20
   74.49100       -4.1639813E-20
   74.65250       -3.5984098E-20
   74.81400       -3.7833965E-20
   74.97550       -4.6755576E-20
   75.13700       -5.9249474E-20
   75.29850       -7.0286054E-20
   75.46000       -7.5532854E-20
   75.62150       -7.3257034E-20
   75.78300       -6.5050511E-20
   75.94450       -5.5046718E-20
   76.10600       -4.8008574E-20
   76.26750       -4.7158707E-20
   76.42900       -5.2745304E-20
   76.59050       -6.1969076E-20
   76.75200       -7.0269710E-20
   76.91350       -7.3376045E-20
   77.07500       -6.9202176E-20
   77.23650       -5.8770963E-20
   77.39800       -4.5781306E-20
   77.55950       -3.5032718E-20
   77.72100       -3.0390949E-20
   77.88250       -3.3181307E-20
   78.04400       -4.1695225E-20
   78.20550       -5.1991982E-20
   78.36700       -5.9645357E-20
   78.52850       -6.1652705E-20
   78.69000       -5.7700436E-20
   78.85150       -5.0239445E-20
   79.01300       -4.3362129E-20
   79.17450       -4.0960019E-20
   79.33600       -4.4958607E-20
   79.49750       -5.4401058E-20
   79.65900       -6.5791393E-20
   79.82050       -7.4574184E-20
   79.98200       -7.7120672E-20
   80.14350       -7.2341546E-20
   80.30500       -6.2200447E-20
   80.46650       -5.0880222E-20
   80.62800       -4.2958342E-20
   80.78950       -4.1416927E-20
   80.95100       -4.6365877E-20
   81.11250       -5.5063875E-20
   81.27400       -6.3210344E-20
   81.43550       -6.6923500E-20
   81.59700       -6.4506672E-20
   81.75850       -5.7193768E-20
   81.92000       -4.8549550E-20
   82.08150       -4.2807676E-20
   82.24300       -4.2914311E-20
   82.40450       -4.9187920E-20
   82.56600       -5.9196696E-20
   82.72750       -6.8873604E-20
   82.88900       -7.4340402E-20
   83.05050       -7.3595939E-20
   83.21200       -6.7332011E-20
   83.37350       -5.8547366E-20
   83.53500       -5.1171057E-20
   83.69650       -4.8339353E-20
   83.85800       -5.1068477E-20
   84.01950       -5.7884975E-20
   84.18100       -6.5542845E-20
   84.34250       -7.0480202E-20
   84.50400       -7.0377567E-20
   84.66550       -6.5144706E-20
   84.82700       -5.6932244E-20
   84.98850       -4.9178156E-20
   85.15000       -4.5113326E-20
   85.31150       -4.6364843E-20
   85.47300       -5.2243823E-20
   85.63450       -6.0029499E-20
   85.79600       -6.6138951E-20
   85.95750       -6.7694516E-20
   86.11900       -6.3814490E-20
   86.28050       -5.6048408E-20
   86.44200       -4.7734419E-20
   86.60350       -4.2539592E-20
   86.76500       -4.2813020E-20
   86.92650       -4.8508446E-20
   87.08800       -5.7168572E-20
   87.24950       -6.5002670E-20
   87.41100       -6.8580575E-20
   87.57250       -6.6375971E-20
   87.73400       -5.9459397E-20
   87.89550       -5.1007992E-20
   88.05700       -4.4866755E-20
   88.21850       -4.3803963E-20
   88.38000       -4.8273853E-20
   88.54150       -5.6234808E-20
   88.70300       -6.4097366E-20
   88.86450       -6.8357863E-20
   89.02600       -6.7154244E-20
   89.18750       -6.1063268E-20
   89.34900       -5.2800861E-20
   89.51050       -4.5995585E-20
   89.67200       -4.3604054E-20
   89.83350       -4.6654521E-20
   89.99500       -5.3833447E-20
   90.15650       -6.2066702E-20
   90.31800       -6.7819892E-20
   90.47950       -6.8553272E-20
   90.64100       -6.3746571E-20
   90.80250       -5.5080199E-20
   90.96400       -4.5731320E-20
   91.12550       -3.9071543E-20
   91.28700       -3.7309536E-20
   91.44850       -4.0610536E-20
   91.61000       -4.7054631E-20
   91.77150       -5.3455688E-20
   91.93300       -5.6715548E-20
   92.09450       -5.5168546E-20
   92.25600       -4.9349641E-20
   92.41750       -4.1830879E-20
   92.57900       -3.6165584E-20
   92.74050       -3.5364853E-20
   92.90200       -4.0551654E-20
   93.06350       -5.0401346E-20
   93.22500       -6.1639606E-20
   93.38650       -7.0409885E-20
   93.54800       -7.3916071E-20
   93.70950       -7.1617420E-20
   93.87100       -6.5435014E-20
   94.03250       -5.8867239E-20
   94.19400       -5.5417779E-20
   94.35550       -5.7040049E-20
   94.51700       -6.3295337E-20
   94.67850       -7.1593102E-20
   94.84000       -7.8373844E-20
   95.00150       -8.0688037E-20
   95.16300       -7.7464230E-20
   95.32450       -6.9924802E-20
   95.48600       -6.1016093E-20
   95.64750       -5.4137026E-20
   95.80900       -5.1735016E-20
   95.97050       -5.4352933E-20
   96.13200       -6.0492345E-20
   96.29350       -6.7289404E-20
   96.45500       -7.1704352E-20
   96.61650       -7.1732450E-20
   96.77800       -6.7169935E-20
   96.93950       -5.9659594E-20
   97.10100       -5.2015492E-20
   97.26250       -4.7088497E-20
   97.42400       -4.6603288E-20
   97.58550       -5.0425412E-20
   97.74700       -5.6560736E-20
   97.90850       -6.1933339E-20
   98.07000       -6.3649887E-20
   98.23150       -6.0254750E-20
   98.39300       -5.2427728E-20
   98.55450       -4.2793168E-20
   98.71600       -3.4873935E-20
   98.87750       -3.1611127E-20
   99.03900       -3.4091897E-20
   99.20050       -4.1061601E-20
   99.36200       -4.9464486E-20
   99.52350       -5.5787949E-20
   99.68500       -5.7619851E-20
   99.84650       -5.4714463E-20
   100.0080       -4.9079301E-20
   100.1695       -4.4049258E-20
   100.3310       -4.2780702E-20
   100.4925       -4.6845015E-20
   100.6540       -5.5547046E-20
   100.8155       -6.6242123E-20
   100.9770       -7.5476567E-20
   101.1385       -8.0432619E-20
   101.3000       -8.0051522E-20
   101.4615       -7.5387315E-20
   101.6230       -6.9075358E-20
   101.7845       -6.4177047E-20
   101.9460       -6.2899660E-20
   102.1075       -6.5707422E-20
   102.2690       -7.1175648E-20
   102.4305       -7.6616842E-20
   102.5920       -7.9218712E-20
   102.7535       -7.7221743E-20
   102.9150       -7.0679359E-20
   103.0765       -6.1475727E-20
   103.2380       -5.2594014E-20
   103.3995       -4.6906695E-20
   103.5610       -4.5977064E-20
   103.7225       -4.9386379E-20
   103.8840       -5.4892513E-20
   104.0455       -5.9395465E-20
   104.2070       -6.0312608E-20
   104.3685       -5.6760856E-20
   104.5300       -5.0001711E-20
   104.6915       -4.2919972E-20
   104.8530       -3.8747505E-20
   105.0145       -3.9600829E-20
   105.1760       -4.5489088E-20
   105.3375       -5.4271430E-20
   105.4990       -6.2580563E-20
   105.6605       -6.7311351E-20
   105.8220       -6.6983115E-20
   105.9835       -6.2356119E-20
   106.1450       -5.6017085E-20
   106.3065       -5.1148555E-20
   106.4680       -5.0058509E-20
   106.6295       -5.3163816E-20
   106.7910       -5.8862961E-20
   106.9525       -6.4342871E-20
   107.1140       -6.6903557E-20
   107.2755       -6.5200211E-20
   107.4370       -5.9847732E-20
   107.5985       -5.3149618E-20
   107.7600       -4.8087195E-20
   107.9215       -4.7024775E-20
   108.0830       -5.0683851E-20
   108.2445       -5.7819175E-20
   108.4060       -6.5725309E-20
   108.5675       -7.1365195E-20
   108.7290       -7.2645625E-20
   108.8905       -6.9305748E-20
   109.0520       -6.3046995E-20
   109.2135       -5.6824943E-20
   109.3750       -5.3579652E-20
   109.5365       -5.4918395E-20
   109.6980       -6.0333746E-20
   109.8595       -6.7329174E-20
   110.0210       -7.2472311E-20
   110.1825       -7.2946712E-20
   110.3440       -6.7926430E-20
   110.5055       -5.9100620E-20
   110.6670       -5.0044711E-20
   110.8285       -4.4655820E-20
   110.9900       -4.5346516E-20
   111.1515       -5.1842424E-20
   111.3130       -6.1190298E-20
   111.4745       -6.9029263E-20
   111.6360       -7.1577974E-20
   111.7975       -6.7419530E-20
   111.9590       -5.8230446E-20
   112.1205       -4.8081560E-20
   112.2820       -4.1591969E-20
   112.4435       -4.1789610E-20
   112.6050       -4.8673908E-20
   112.7665       -5.9170329E-20
   112.9280       -6.8506039E-20
   113.0895       -7.2384404E-20
   113.2510       -6.8957285E-20
   113.4125       -5.9708759E-20
   113.5740       -4.8835286E-20
   113.7355       -4.1408406E-20
   113.8970       -4.1129427E-20
   114.0585       -4.8655626E-20
   114.2200       -6.1236278E-20
   114.3815       -7.3831867E-20
   114.5430       -8.1253583E-20
   114.7045       -8.0410505E-20
   114.8660       -7.1696875E-20
   115.0275       -5.8900358E-20
   115.1890       -4.7645180E-20
   115.3505       -4.2995817E-20
   115.5120       -4.7234957E-20
   115.6735       -5.8786279E-20
   115.8350       -7.2789962E-20
   115.9965       -8.3138069E-20
   116.1580       -8.5141106E-20
   116.3195       -7.7664162E-20
   116.4810       -6.3758041E-20
   116.6425       -4.9423492E-20
   116.8040       -4.0988318E-20
   116.9655       -4.2226969E-20
   117.1270       -5.2535152E-20
   117.2885       -6.7035053E-20
   117.4500       -7.8653121E-20
   117.6115       -8.1275562E-20
   117.7730       -7.2580498E-20
   117.9345       -5.5227424E-20
   118.0960       -3.5822433E-20
   118.2575       -2.2059285E-20
   118.4190       -1.9310113E-20
   118.5805       -2.8213851E-20
   118.7420       -4.4367041E-20