  -27.90000        7.3798391E-18
  -27.73850        7.3850495E-18
  -27.57700        7.3936034E-18
  -27.41550        7.4029191E-18
  -27.25400        7.4110858E-18
  -27.09250        7.4177372E-18
  -26.93100        7.4239212E-18
  -26.76950        7.4311094E-18
  -26.60800        7.4400305E-18
  -26.44650        7.4500907E-18
  -26.28500        7.4597356E-18
  -26.12350        7.4674789E-18
  -25.96200        7.4729052E-18
  -25.80050        7.4769765E-18
  -25.63900        7.4814268E-18
  -25.47750        7.4876356E-18
  -25.31600        7.4957238E-18
  -25.15450        7.5044646E-18
  -24.99300        7.5121003E-18
  -24.83150        7.5175067E-18
  -24.67000        7.5209610E-18
  -24.50850        7.5239670E-18
  -24.34700        7.5282576E-18
  -24.18550        7.5346286E-18
  -24.02400        7.5423685E-18
  -23.86250        7.5496973E-18
  -23.70100        7.5549118E-18
  -23.53950        7.5575142E-18
  -23.37800        7.5585771E-18
  -23.21650        7.5601206E-18
  -23.05500        7.5638744E-18
  -22.89350        7.5702097E-18
  -22.73200        7.5779108E-18
  -22.57050        7.5849253E-18
  -22.40900        7.5896162E-18
  -22.24750        7.5917454E-18
  -22.08600        7.5925544E-18
  -21.92450        7.5939308E-18
  -21.76300        7.5971940E-18
  -21.60150        7.6023027E-18
  -21.44000        7.6079879E-18
  -21.27850        7.6126871E-18
  -21.11700        7.6156435E-18
  -20.95550        7.6174053E-18
  -20.79400        7.6194096E-18
  -20.63250        7.6229226E-18
  -20.47100        7.6280933E-18
  -20.30950        7.6337571E-18
  -20.14800        7.6381568E-18
  -19.98650        7.6401255E-18
  -19.82500        7.6399576E-18
  -19.66350        7.6393811E-18
  -19.50200        7.6406078E-18
  -19.34050        7.6450324E-18
  -19.17900        7.6523637E-18
  -19.01750        7.6607637E-18
  -18.85600        7.6679022E-18
  -18.69450        7.6722896E-18
  -18.53300        7.6740573E-18
  -18.37150        7.6747116E-18
  -18.21000        7.6760384E-18
  -18.04850        7.6788946E-18
  -17.88700        7.6826625E-18
  -17.72550        7.6857313E-18
  -17.56400        7.6866437E-18
  -17.40250        7.6851605E-18
  -17.24100        7.6825318E-18
  -17.07950        7.6808087E-18
  -16.91800        7.6816467E-18
  -16.75650        7.6853624E-18
  -16.59500        7.6908474E-18
  -16.43350        7.6963506E-18
  -16.27200        7.7006123E-18
  -16.11050        7.7036025E-18
  -15.94900        7.7063926E-18
  -15.78750        7.7102638E-18
  -15.62600        7.7156529E-18
  -15.46450        7.7216839E-18
  -15.30300        7.7266197E-18
  -15.14150        7.7289862E-18
  -14.98000        7.7286190E-18
  -14.81850        7.7269257E-18
  -14.65700        7.7261424E-18
  -14.49550        7.7280374E-18
  -14.33400        7.7328649E-18
  -14.17250        7.7392524E-18
  -14.01100        7.7450774E-18
  -13.84950        7.7487732E-18
  -13.68800        7.7502481E-18
  -13.52650        7.7508469E-18
  -13.36500        7.7524078E-18
  -13.20350        7.7560491E-18
  -13.04200        7.7614506E-18
  -12.88050        7.7670878E-18
  -12.71900        7.7712576E-18
  -12.55750        7.7732040E-18
  -12.39600        7.7736126E-18
  -12.23450        7.7741346E-18
  -12.07300        7.7762480E-18
  -11.91150        7.7802177E-18
  -11.75000        7.7848672E-18
  -11.58850        7.7883232E-18
  -11.42700        7.7892678E-18
  -11.26550        7.7878658E-18
  -11.10400        7.7857358E-18
  -10.94250        7.7849756E-18
  -10.78100        7.7868574E-18
  -10.61950        7.7910421E-18
  -10.45800        7.7958026E-18
  -10.29650        7.7991229E-18
  -10.13500        7.7999732E-18
  -9.973500        7.7989401E-18
  -9.812000        7.7978325E-18
  -9.650500        7.7985107E-18
  -9.489000        7.8016789E-18
  -9.327500        7.8064269E-18
  -9.166000        7.8108101E-18
  -9.004500        7.8130973E-18
  -8.843000        7.8128929E-18
  -8.681500        7.8113999E-18
  -8.520000        7.8106529E-18
  -8.358500        7.8122461E-18
  -8.197000        7.8163646E-18
  -8.035500        7.8217611E-18
  -7.874000        7.8266374E-18
  -7.712500        7.8298377E-18
  -7.551000        7.8315417E-18
  -7.389500        7.8330191E-18
  -7.228000        7.8356429E-18
  -7.066500        7.8398367E-18
  -6.905000        7.8446956E-18
  -6.743500        7.8485461E-18
  -6.582000        7.8500871E-18
  -6.420500        7.8493675E-18
  -6.259000        7.8479257E-18
  -6.097500        7.8479348E-18
  -5.936000        7.8508837E-18
  -5.774500        7.8566086E-18
  -5.613000        7.8633435E-18
  -5.451500        7.8687698E-18
  -5.290000        7.8714424E-18
  -5.128500        7.8716641E-18
  -4.967000        7.8712480E-18
  -4.805500        7.8723259E-18
  -4.644000        7.8759663E-18
  -4.482500        7.8814943E-18
  -4.321000        7.8869463E-18
  -4.159500        7.8903493E-18
  -3.998000        7.8910102E-18
  -3.836500        7.8899911E-18
  -3.675000        7.8894775E-18
  -3.513500        7.8914428E-18
  -3.352000        7.8964605E-18
  -3.190500        7.9033832E-18
  -3.029000        7.9100941E-18
  -2.867500        7.9148115E-18
  -2.706000        7.9171326E-18
  -2.544500        7.9181302E-18
  -2.383000        7.9195008E-18
  -2.221500        7.9223273E-18
  -2.060000        7.9263159E-18
  -1.898500        7.9299977E-18
  -1.737000        7.9317621E-18
  -1.575500        7.9309862E-18
  -1.414000        7.9284997E-18
  -1.252500        7.9260686E-18
  -1.091000        7.9252447E-18
 -0.9295000        7.9263639E-18
 -0.7680000        7.9283715E-18
 -0.6065000        7.9295908E-18
 -0.4450000        7.9289290E-18
 -0.2835000        7.9267097E-18
 -0.1220000        7.9245689E-18
  3.9500002E-02    7.9244341E-18
  0.2010000        7.9272416E-18
  0.3625000        7.9322303E-18
  0.5240000        7.9373092E-18
  0.6855000        7.9403168E-18
  0.8470000        7.9403788E-18
   1.008500        7.9385003E-18
   1.170000        7.9369618E-18
   1.331500        7.9378940E-18
   1.493000        7.9419215E-18
   1.654500        7.9477482E-18
   1.816000        7.9529470E-18
   1.977500        7.9554567E-18
   2.139000        7.9548313E-18
   2.300500        7.9524780E-18
   2.462000        7.9507442E-18
   2.623500        7.9514672E-18
   2.785000        7.9548934E-18
   2.946500        7.9596249E-18
   3.108000        7.9635912E-18
   3.269500        7.9653953E-18
   3.431000        7.9651777E-18
   3.592500        7.9644473E-18
   3.754000        7.9650396E-18
   3.915500        7.9679008E-18
   4.077000        7.9725256E-18
   4.238500        7.9773977E-18
   4.400000        7.9811225E-18
   4.561500        7.9834386E-18
   4.723000        7.9854064E-18
   4.884500        7.9886142E-18
   5.046000        7.9939570E-18
   5.207500        8.0008366E-18
   5.369000        8.0073631E-18
   5.530500        8.0114800E-18
   5.692000        8.0122881E-18
   5.853500        8.0106999E-18
   6.015000        8.0089736E-18
   6.176500        8.0093715E-18
   6.338000        8.0127737E-18
   6.499500        8.0181239E-18
   6.661000        8.0230828E-18
   6.822500        8.0254990E-18
   6.984000        8.0247935E-18
   7.145500        8.0223756E-18
   7.307000        8.0208180E-18
   7.468500        8.0222937E-18
   7.630000        8.0272675E-18
   7.791500        8.0342556E-18
   7.953000        8.0407829E-18
   8.114500        8.0449039E-18
   8.276000        8.0463010E-18
   8.437500        8.0462861E-18
   8.599000        8.0467650E-18
   8.760500        8.0488793E-18
   8.922000        8.0522401E-18
   9.083500        8.0552296E-18
   9.245000        8.0561403E-18
   9.406500        8.0543842E-18
   9.568000        8.0509613E-18
   9.729500        8.0478701E-18
   9.891000        8.0468469E-18
   10.05250        8.0482630E-18
   10.21400        8.0509183E-18
   10.37550        8.0529019E-18
   10.53700        8.0529358E-18
   10.69850        8.0513145E-18
   10.86000        8.0497834E-18
   11.02150        8.0504005E-18
   11.18300        8.0541261E-18
   11.34450        8.0600727E-18
   11.50600        8.0659382E-18
   11.66750        8.0693702E-18
   11.82900        8.0693917E-18
   11.99050        8.0669772E-18
   12.15200        8.0644377E-18
   12.31350        8.0639952E-18
   12.47500        8.0664676E-18
   12.63650        8.0708674E-18
   12.79800        8.0751522E-18
   12.95950        8.0776007E-18
   13.12100        8.0779166E-18
   13.28250        8.0773393E-18
   13.44400        8.0776958E-18
   13.60550        8.0800475E-18
   13.76700        8.0838599E-18
   13.92850        8.0872861E-18
   14.09000        8.0884036E-18
   14.25150        8.0865872E-18
   14.41300        8.0830816E-18
   14.57450        8.0803535E-18
   14.73600        8.0806025E-18
   14.89750        8.0843910E-18
   15.05900        8.0902863E-18
   15.22050        8.0957424E-18
   15.38200        8.0986938E-18
   15.54350        8.0988170E-18
   15.70500        8.0976978E-18
   15.86650        8.0977781E-18
   16.02800        8.1007617E-18
   16.18950        8.1064949E-18
   16.35100        8.1130189E-18
   16.51250        8.1177810E-18
   16.67400        8.1192145E-18
   16.83550        8.1176999E-18
   16.99700        8.1152820E-18
   17.15850        8.1143556E-18
   17.32000        8.1161737E-18
   17.48150        8.1201558E-18
   17.64300        8.1244067E-18
   17.80450        8.1270644E-18
   17.96600        8.1275433E-18
   18.12750        8.1268543E-18
   18.28900        8.1268212E-18
   18.45050        8.1287610E-18
   18.61200        8.1325420E-18
   18.77350        8.1366688E-18
   18.93500        8.1393489E-18
   19.09650        8.1397964E-18
   19.25800        8.1388890E-18
   19.41950        8.1386780E-18
   19.58100        8.1410297E-18
   19.74250        8.1462575E-18
   19.90400        8.1526838E-18
   20.06550        8.1575030E-18
   20.22700        8.1584559E-18
   20.38850        8.1552853E-18
   20.55000        8.1500212E-18
   20.71150        8.1458795E-18
   20.87300        8.1454212E-18
   21.03450        8.1491162E-18
   21.19600        8.1551786E-18
   21.35750        8.1607613E-18
   21.51900        8.1637093E-18
   21.68050        8.1637854E-18
   21.84200        8.1626274E-18
   22.00350        8.1625289E-18
   22.16500        8.1648682E-18
   22.32650        8.1691919E-18
   22.48800        8.1735338E-18
   22.64950        8.1757117E-18
   22.81100        8.1747472E-18
   22.97250        8.1714865E-18
   23.13400        8.1680256E-18
   23.29550        8.1663580E-18
   23.45700        8.1671471E-18
   23.61850        8.1694549E-18
   23.78000        8.1715659E-18
   23.94150        8.1723178E-18
   24.10300        8.1719729E-18
   24.26450        8.1720167E-18
   24.42600        8.1740077E-18
   24.58750        8.1782818E-18
   24.74900        8.1834550E-18
   24.91050        8.1871194E-18
   25.07200        8.1873551E-18
   25.23350        8.1840638E-18
   25.39500        8.1792463E-18
   25.55650        8.1759607E-18
   25.71800        8.1765472E-18
   25.87950        8.1812150E-18
   26.04100        8.1878804E-18
   26.20250        8.1933919E-18
   26.36400        8.1954094E-18
   26.52550        8.1937947E-18
   26.68700        8.1906274E-18
   26.84850        8.1888713E-18
   27.01000        8.1905191E-18
   27.17150        8.1954177E-18
   27.33300        8.2014676E-18
   27.49450        8.2060436E-18
   27.65600        8.2076707E-18
   27.81750        8.2068865E-18
   27.97900        8.2057723E-18
   28.14050        8.2065135E-18
   28.30200        8.2099694E-18
   28.46350        8.2151666E-18
   28.62500        8.2200163E-18
   28.78650        8.2227245E-18
   28.94800        8.2229479E-18
   29.10950        8.2219371E-18
   29.27100        8.2215847E-18
   29.43250        8.2230595E-18
   29.59400        8.2259729E-18
   29.75550        8.2286736E-18
   29.91700        8.2294735E-18
   30.07850        8.2279705E-18
   30.24000        8.2254956E-18
   30.40150        8.2243260E-18
   30.56300        8.2261259E-18
   30.72450        8.2306622E-18
   30.88600        8.2357063E-18
   31.04750        8.2382615E-18
   31.20900        8.2364044E-18
   31.37050        8.2305703E-18
   31.53200        8.2234574E-18
   31.69350        8.2185630E-18
   31.85500        8.2182205E-18
   32.01650        8.2223316E-18
   32.17800        8.2285421E-18
   32.33950        8.2337368E-18
   32.50100        8.2359048E-18
   32.66250        8.2352257E-18
   32.82400        8.2337318E-18
   32.98550        8.2338137E-18
   33.14700        8.2365732E-18
   33.30850        8.2410995E-18
   33.47000        8.2451023E-18
   33.63150        8.2464563E-18
   33.79300        8.2446167E-18
   33.95450        8.2409581E-18
   34.11600        8.2378735E-18
   34.27750        8.2372507E-18
   34.43900        8.2393583E-18
   34.60050        8.2428556E-18
   34.76200        8.2458566E-18
   34.92350        8.2472943E-18
   35.08500        8.2476309E-18
   35.24650        8.2484449E-18
   35.40800        8.2511771E-18
   35.56950        8.2559176E-18
   35.73100        8.2611057E-18
   35.89250        8.2644136E-18
   36.05400        8.2642631E-18
   36.21550        8.2609833E-18
   36.37700        8.2567878E-18
   36.53850        8.2544941E-18
   36.70000        8.2557919E-18
   36.86150        8.2601553E-18
   37.02300        8.2651390E-18
   37.18450        8.2679002E-18
   37.34600        8.2669762E-18
   37.50750        8.2632018E-18
   37.66900        8.2591693E-18
   37.83050        8.2575960E-18
   37.99200        8.2596482E-18
   38.15350        8.2642862E-18
   38.31500        8.2690301E-18
   38.47650        8.2716266E-18
   38.63800        8.2715332E-18
   38.79950        8.2702527E-18
   38.96100        8.2703048E-18
   39.12250        8.2734985E-18
   39.28400        8.2796478E-18
   39.44550        8.2865721E-18
   39.60700        8.2914087E-18
   39.76850        8.2924037E-18
   39.93000        8.2900115E-18
   40.09150        8.2866077E-18
   40.25300        8.2849914E-18
   40.41450        8.2866706E-18
   40.57600        8.2910050E-18
   40.73750        8.2957571E-18
   40.89900        8.2986225E-18
   41.06050        8.2987416E-18
   41.22200        8.2971898E-18
   41.38350        8.2961765E-18
   41.54500        8.2975050E-18
   41.70650        8.3013191E-18
   41.86800        8.3059745E-18
   42.02950        8.3091045E-18
   42.19100        8.3091765E-18
   42.35250        8.3065030E-18
   42.51400        8.3030438E-18
   42.67550        8.3011330E-18
   42.83700        8.3019742E-18
   42.99850        8.3049223E-18
   43.16000        8.3080217E-18
   43.32150        8.3094131E-18
   43.48300        8.3086570E-18
   43.64450        8.3070357E-18
   43.80600        8.3066222E-18
   43.96750        8.3087397E-18
   44.12900        8.3128864E-18
   44.29050        8.3168842E-18
   44.45200        8.3182292E-18
   44.61350        8.3157824E-18
   44.77500        8.3106828E-18
   44.93650        8.3058388E-18
   45.09800        8.3042531E-18
   45.25950        8.3071888E-18
   45.42100        8.3133554E-18
   45.58250        8.3196378E-18
   45.74400        8.3229606E-18
   45.90550        8.3221384E-18
   46.06700        8.3185501E-18
   46.22850        8.3152265E-18
   46.39000        8.3149279E-18
   46.55150        8.3184302E-18
   46.71300        8.3241063E-18
   46.87450        8.3290189E-18
   47.03600        8.3308114E-18
   47.19750        8.3291537E-18
   47.35900        8.3258640E-18
   47.52050        8.3236646E-18
   47.68200        8.3244338E-18
   47.84350        8.3280842E-18
   48.00500        8.3327635E-18
   48.16650        8.3361848E-18
   48.32800        8.3371666E-18
   48.48950        8.3363535E-18
   48.65100        8.3356703E-18
   48.81250        8.3369085E-18
   48.97400        8.3404373E-18
   49.13550        8.3449281E-18
   49.29700        8.3482955E-18
   49.45850        8.3492079E-18
   49.62000        8.3480986E-18
   49.78150        8.3469522E-18
   49.94300        8.3479564E-18
   50.10450        8.3519177E-18
   50.26600        8.3575318E-18
   50.42750        8.3620747E-18
   50.58900        8.3631037E-18
   50.75050        8.3600961E-18
   50.91200        8.3549262E-18
   51.07350        8.3508234E-18
   51.23500        8.3504280E-18
   51.39650        8.3541668E-18
   51.55800        8.3599695E-18
   51.71950        8.3645471E-18
   51.88100        8.3654198E-18
   52.04250        8.3624320E-18
   52.20400        8.3578040E-18
   52.36550        8.3546855E-18
   52.52700        8.3551454E-18
   52.68850        8.3588859E-18
   52.85000        8.3634842E-18
   53.01150        8.3659881E-18
   53.17300        8.3648209E-18
   53.33450        8.3607471E-18
   53.49600        8.3563274E-18
   53.65750        8.3542405E-18
   53.81900        8.3555995E-18
   53.98050        8.3593541E-18
   54.14200        8.3631062E-18
   54.30350        8.3647655E-18
   54.46500        8.3639019E-18
   54.62650        8.3619225E-18
   54.78800        8.3609911E-18
   54.94950        8.3624519E-18
   55.11100        8.3658640E-18
   55.27250        8.3693051E-18
   55.43400        8.3707502E-18
   55.59550        8.3695913E-18
   55.75700        8.3672131E-18
   55.91850        8.3661907E-18
   56.08000        8.3685954E-18
   56.24150        8.3745138E-18
   56.40300        8.3818228E-18
   56.56450        8.3874096E-18
   56.72600        8.3891070E-18
   56.88750        8.3870737E-18
   57.04900        8.3837286E-18
   57.21050        8.3822174E-18
   57.37200        8.3844061E-18
   57.53350        8.3896504E-18
   57.69500        8.3951462E-18
   57.85650        8.3976583E-18
   58.01800        8.3955201E-18
   58.17950        8.3896802E-18
   58.34100        8.3831264E-18
   58.50250        8.3790824E-18
   58.66400        8.3790972E-18
   58.82550        8.3822372E-18
   58.98700        8.3858297E-18
   59.14850        8.3872541E-18
   59.31000        8.3855914E-18
   59.47150        8.3821007E-18
   59.63300        8.3792701E-18
   59.79450        8.3791154E-18
   59.95600        8.3818815E-18
   60.11750        8.3859728E-18
   60.27900        8.3890962E-18
   60.44050        8.3898076E-18
   60.60200        8.3884030E-18
   60.76350        8.3865816E-18
   60.92500        8.3861655E-18
   61.08650        8.3877752E-18
   61.24800        8.3904056E-18
   61.40950        8.3921890E-18
   61.57100        8.3918242E-18
   61.73250        8.3896653E-18
   61.89400        8.3876734E-18
   62.05550        8.3881921E-18
   62.21700        8.3923139E-18
   62.37850        8.3989529E-18
   62.54000        8.4053015E-18
   62.70150        8.4084646E-18
   62.86300        8.4072578E-18
   63.02450        8.4030110E-18
   63.18600        8.3987941E-18
   63.34750        8.3975260E-18
   63.50900        8.4001358E-18
   63.67050        8.4049516E-18
   63.83200        8.4087302E-18
   63.99350        8.4086954E-18
   64.15500        8.4043238E-18
   64.31650        8.3977609E-18
   64.47800        8.3925861E-18
   64.63950        8.3917035E-18
   64.80100        8.3956475E-18
   64.96250        8.4023154E-18
   65.12400        8.4082851E-18
   65.28550        8.4108544E-18
   65.44700        8.4095466E-18
   65.60850        8.4061824E-18
   65.77000        8.4035619E-18
   65.93150        8.4036430E-18
   66.09300        8.4064008E-18
   66.25450        8.4100512E-18
   66.41600        8.4123838E-18
   66.57750        8.4122738E-18
   66.73900        8.4103564E-18
   66.90050        8.4084580E-18
   67.06200        8.4082587E-18
   67.22350        8.4101207E-18
   67.38500        8.4129116E-18
   67.54650        8.4149051E-18
   67.70800        8.4151085E-18
   67.86950        8.4140622E-18
   68.03100        8.4135055E-18
   68.19250        8.4151317E-18
   68.35400        8.4192544E-18
   68.51550        8.4243697E-18
   68.67700        8.4279795E-18
   68.83850        8.4282053E-18
   69.00000        8.4251257E-18
   69.16150        8.4209120E-18
   69.32300        8.4185645E-18
   69.48450        8.4200245E-18
   69.64600        8.4248643E-18
   69.80750        8.4304544E-18
   69.96900        8.4335638E-18
   70.13050        8.4324223E-18
   70.29200        8.4279307E-18
   70.45350        8.4232240E-18
   70.61500        8.4218153E-18
   70.77650        8.4254574E-18
   70.93800        8.4330344E-18
   71.09950        8.4411920E-18
   71.26100        8.4462891E-18
   71.42250        8.4464885E-18
   71.58400        8.4426950E-18
   71.74550        8.4378113E-18
   71.90700        8.4348277E-18
   72.06850        8.4349774E-18
   72.23000        8.4371264E-18
   72.39150        8.4387171E-18
   72.55300        8.4375963E-18
   72.71450        8.4335133E-18
   72.87600        8.4283037E-18
   73.03750        8.4247072E-18
   73.19900        8.4246112E-18
   73.36050        8.4279133E-18
   73.52200        8.4326994E-18
   73.68350        8.4365764E-18
   73.84500        8.4382233E-18
   74.00650        8.4381182E-18
   74.16800        8.4379966E-18
   74.32950        8.4394500E-18
   74.49100        8.4426702E-18
   74.65250        8.4462337E-18
   74.81400        8.4480758E-18
   74.97550        8.4469931E-18
   75.13700        8.4436306E-18
   75.29850        8.4402110E-18
   75.46000        8.4391439E-18
   75.62150        8.4414195E-18
   75.78300        8.4458722E-18
   75.94450        8.4498659E-18
   76.10600        8.4509859E-18
   76.26750        8.4486449E-18
   76.42900        8.4445239E-18
   76.59050        8.4415196E-18
   76.75200        8.4418488E-18
   76.91350        8.4455513E-18
   77.07500        8.4503713E-18
   77.23650        8.4531547E-18
   77.39800        8.4518709E-18
   77.55950        8.4469740E-18
   77.72100        8.4412078E-18
   77.88250        8.4379354E-18
   78.04400        8.4390596E-18
   78.20550        8.4438233E-18
   78.36700        8.4492786E-18
   78.52850        8.4521323E-18
   78.69000        8.4507915E-18
   78.85150        8.4463404E-18
   79.01300        8.4418265E-18
   79.17450        8.4403367E-18
   79.33600        8.4430846E-18
   79.49750        8.4487128E-18
   79.65900        8.4542052E-18
   79.82050        8.4567745E-18
   79.98200        8.4555138E-18
   80.14350        8.4517617E-18
   80.30500        8.4480461E-18
   80.46650        8.4463363E-18
   80.62800        8.4468053E-18
   80.78950        8.4478723E-18
   80.95100        8.4474538E-18
   81.11250        8.4445272E-18
   81.27400        8.4399463E-18
   81.43550        8.4359411E-18
   81.59700        8.4346697E-18
   81.75850        8.4367972E-18
   81.92000        8.4410721E-18
   82.08150        8.4451848E-18
   82.24300        8.4473198E-18
   82.40450        8.4473388E-18
   82.56600        8.4467755E-18
   82.72750        8.4476440E-18
   82.88900        8.4508626E-18
   83.05050        8.4554195E-18
   83.21200        8.4588871E-18
   83.37350        8.4590112E-18
   83.53500        8.4553319E-18
   83.69650        8.4497261E-18
   83.85800        8.4454346E-18
   84.01950        8.4451302E-18
   84.18100        8.4492405E-18
   84.34250        8.4556164E-18
   84.50400        8.4608136E-18
   84.66550        8.4621975E-18
   84.82700        8.4595670E-18
   84.98850        8.4552624E-18
   85.15000        8.4526692E-18
   85.31150        8.4540679E-18
   85.47300        8.4591733E-18
   85.63450        8.4653044E-18
   85.79600        8.4690598E-18
   85.95750        8.4684377E-18
   86.11900        8.4640528E-18
   86.28050        8.4587076E-18
   86.44200        8.4556023E-18
   86.60350        8.4563576E-18
   86.76500        8.4601039E-18
   86.92650        8.4641645E-18
   87.08800        8.4658470E-18
   87.24950        8.4641430E-18
   87.41100        8.4602569E-18
   87.57250        8.4566727E-18
   87.73400        8.4554386E-18
   87.89550        8.4568390E-18
   88.05700        8.4593172E-18
   88.21850        8.4606589E-18
   88.38000        8.4595927E-18
   88.54150        8.4566884E-18
   88.70300        8.4539348E-18
   88.86450        8.4532896E-18
   89.02600        8.4552045E-18
   89.18750        8.4581790E-18
   89.34900        8.4596985E-18
   89.51050        8.4579590E-18
   89.67200        8.4532275E-18
   89.83350        8.4478591E-18
   89.99500        8.4449052E-18
   90.15650        8.4461650E-18
   90.31800        8.4509602E-18
   90.47950        8.4564634E-18
   90.64100        8.4594057E-18
   90.80250        8.4581054E-18
   90.96400        8.4535071E-18
   91.12550        8.4485705E-18
   91.28700        8.4463785E-18
   91.44850        8.4481834E-18
   91.61000        8.4526253E-18
   91.77150        8.4566190E-18
   91.93300        8.4573460E-18
   92.09450        8.4540613E-18
   92.25600        8.4485573E-18
   92.41750        8.4440260E-18
   92.57900        8.4430457E-18
   92.74050        8.4460319E-18
   92.90200        8.4511207E-18
   93.06350        8.4555180E-18
   93.22500        8.4573858E-18
   93.38650        8.4569953E-18
   93.54800        8.4563964E-18
   93.70950        8.4578829E-18
   93.87100        8.4622934E-18
   94.03250        8.4683401E-18
   94.19400        8.4733991E-18
   94.35550        8.4752545E-18
   94.51700        8.4736001E-18
   94.67850        8.4702964E-18
   94.84000        8.4681573E-18
   95.00150        8.4690738E-18
   95.16300        8.4726919E-18
   95.32450        8.4765631E-18
   95.48600        8.4777088E-18
   95.64750        8.4745944E-18
   95.80900        8.4682309E-18
   95.97050        8.4616540E-18
   96.13200        8.4580880E-18
   96.29350        8.4589648E-18
   96.45500        8.4630677E-18
   96.61650        8.4673516E-18
   96.77800        8.4688852E-18
   96.93950        8.4666857E-18
   97.10100        8.4622512E-18
   97.26250        8.4585132E-18
   97.42400        8.4579094E-18
   97.58550        8.4608252E-18
   97.74700        8.4654119E-18
   97.90850        8.4688314E-18
   98.07000        8.4691003E-18
   98.23150        8.4663052E-18
   98.39300        8.4624349E-18
   98.55450        8.4599798E-18
   98.71600        8.4602610E-18
   98.87750        8.4626284E-18
   99.03900        8.4650372E-18
   99.20050        8.4655773E-18
   99.36200        8.4638808E-18
   99.52350        8.4614108E-18
   99.68500        8.4604182E-18
   99.84650        8.4622951E-18
   100.0080        8.4664599E-18
   100.1695        8.4705917E-18
   100.3310        8.4720963E-18
   100.4925        8.4698505E-18
   100.6540        8.4650463E-18
   100.8155        8.4605266E-18
   100.9770        8.4590037E-18
   101.1385        8.4612826E-18
   101.3000        8.4656724E-18
   101.4615        8.4690126E-18
   101.6230        8.4687016E-18
   101.7845        8.4644548E-18
   101.9460        8.4586290E-18
   102.1075        8.4548744E-18
   102.2690        8.4559109E-18
   102.4305        8.4618368E-18
   102.5920        8.4700251E-18
   102.7535        8.4766797E-18
   102.9150        8.4790744E-18
   103.0765        8.4770702E-18
   103.2380        8.4730062E-18
   103.3995        8.4701119E-18
   103.5610        8.4704693E-18
   103.7225        8.4738392E-18
   103.8840        8.4780181E-18
   104.0455        8.4804178E-18
   104.2070        8.4797792E-18
   104.3685        8.4769279E-18
   104.5300        8.4741064E-18
   104.6915        8.4734140E-18
   104.8530        8.4754125E-18
   105.0145        8.4788321E-18
   105.1760        8.4815452E-18
   105.3375        8.4821003E-18
   105.4990        8.4807230E-18
   105.6605        8.4791017E-18
   105.8220        8.4790918E-18
   105.9835        8.4812665E-18
   106.1450        8.4843460E-18
   106.3065        8.4859491E-18
   106.4680        8.4841988E-18
   106.6295        8.4790860E-18
   106.7910        8.4726572E-18
   106.9525        8.4678347E-18
   107.1140        8.4666014E-18
   107.2755        8.4687330E-18
   107.4370        8.4719102E-18
   107.5985        8.4732006E-18
   107.7600        8.4709598E-18
   107.9215        8.4659380E-18
   108.0830        8.4608632E-18
   108.2445        8.4587183E-18
   108.4060        8.4608185E-18
   108.5675        8.4659264E-18
   108.7290        8.4709937E-18
   108.8905        8.4730658E-18
   109.0520        8.4711227E-18
   109.2135        8.4666874E-18
   109.3750        8.4627930E-18
   109.5365        8.4620188E-18
   109.6980        8.4648453E-18
   109.8595        8.4693997E-18
   110.0210        8.4727184E-18
   110.1825        8.4727060E-18
   110.3440        8.4695097E-18
   110.5055        8.4654375E-18
   110.6670        8.4634862E-18
   110.8285        8.4654425E-18
   110.9900        8.4707555E-18
   111.1515        8.4769047E-18
   111.3130        8.4810001E-18
   111.4745        8.4815485E-18
   111.6360        8.4792787E-18
   111.7975        8.4765110E-18
   111.9590        8.4755473E-18
   112.1205        8.4771661E-18
   112.2820        8.4802192E-18
   112.4435        8.4825403E-18
   112.6050        8.4824990E-18
   112.7665        8.4801291E-18
   112.9280        8.4770619E-18
   113.0895        8.4753728E-18
   113.2510        8.4761313E-18
   113.4125        8.4786881E-18
   113.5740        8.4811796E-18
   113.7355        8.4818744E-18
   113.8970        8.4804393E-18
   114.0585        8.4782018E-18
   114.2200        8.4772009E-18
   114.3815        8.4786426E-18
   114.5430        8.4818504E-18
   114.7045        8.4844925E-18
   114.8660        8.4840408E-18
   115.0275        8.4795583E-18
   115.1890        8.4726017E-18
   115.3505        8.4665650E-18
   115.5120        8.4647650E-18
   115.6735        8.4684311E-18
   115.8350        8.4758732E-18
   115.9965        8.4833882E-18
   116.1580        8.4873942E-18
   116.3195        8.4865042E-18
   116.4810        8.4822690E-18
   116.6425        8.4781637E-18
   116.8040        8.4774424E-18
   116.9655        8.4811813E-18
   117.1270        8.4876779E-18
   117.2885        8.4935253E-18
   117.4500        8.4956362E-18
   117.6115        8.4929678E-18
   117.7730        8.4869318E-18
   117.9345        8.4803334E-18
   118.0960        8.4756094E-18
   118.2575        8.4734910E-18
   118.4190        8.4728979E-18
   118.5805        8.4719681E-18
   118.7420        8.4694494E-18