  -27.90000        8.2040261E-18
  -27.73850        8.2309236E-18
  -27.57700        8.2751653E-18
  -27.41550        8.3221649E-18
  -27.25400        8.3582432E-18
  -27.09250        8.3761078E-18
  -26.93100        8.3775645E-18
  -26.76950        8.3723557E-18
  -26.60800        8.3736420E-18
  -26.44650        8.3920765E-18
  -26.28500        8.4310111E-18
  -26.12350        8.4848630E-18
  -25.96200        8.5413421E-18
  -25.80050        8.5865665E-18
  -25.63900        8.6109022E-18
  -25.47750        8.6130330E-18
  -25.31600        8.6005343E-18
  -25.15450        8.5867179E-18
  -24.99300        8.5850768E-18
  -24.83150        8.6036925E-18
  -24.67000        8.6419380E-18
  -24.50850        8.6908633E-18
  -24.34700        8.7370787E-18
  -24.18550        8.7684520E-18
  -24.02400        8.7792252E-18
  -23.86250        8.7723770E-18
  -23.70100        8.7582677E-18
  -23.53950        8.7501605E-18
  -23.37800        8.7585572E-18
  -23.21650        8.7867517E-18
  -23.05500        8.8294880E-18
  -22.89350        8.8752617E-18
  -22.73200        8.9112689E-18
  -22.57050        8.9288688E-18
  -22.40900        8.9272285E-18
  -22.24750        8.9136139E-18
  -22.08600        8.9002169E-18
  -21.92450        8.8989108E-18
  -21.76300        8.9161732E-18
  -21.60150        8.9503556E-18
  -21.44000        8.9924376E-18
  -21.27850        9.0299254E-18
  -21.11700        9.0522022E-18
  -20.95550        9.0550345E-18
  -20.79400        9.0423249E-18
  -20.63250        9.0243891E-18
  -20.47100        9.0135266E-18
  -20.30950        9.0188081E-18
  -20.14800        9.0423091E-18
  -19.98650        9.0783775E-18
  -19.82500        9.1162161E-18
  -19.66350        9.1446124E-18
  -19.50200        9.1567777E-18
  -19.34050        9.1531977E-18
  -19.17900        9.1412904E-18
  -19.01750        9.1320740E-18
  -18.85600        9.1352785E-18
  -18.69450        9.1550613E-18
  -18.53300        9.1881659E-18
  -18.37150        9.2253014E-18
  -18.21000        9.2551435E-18
  -18.04850        9.2692180E-18
  -17.88700        9.2655478E-18
  -17.72550        9.2494947E-18
  -17.56400        9.2314605E-18
  -17.40250        9.2224410E-18
  -17.24100        9.2293744E-18
  -17.07950        9.2522931E-18
  -16.91800        9.2844853E-18
  -16.75650        9.3155716E-18
  -16.59500        9.3361254E-18
  -16.43350        9.3418073E-18
  -16.27200        9.3352138E-18
  -16.11050        9.3246383E-18
  -15.94900        9.3203022E-18
  -15.78750        9.3297288E-18
  -15.62600        9.3542845E-18
  -15.46450        9.3884321E-18
  -15.30300        9.4220157E-18
  -15.14150        9.4446093E-18
  -14.98000        9.4500232E-18
  -14.81850        9.4390159E-18
  -14.65700        9.4190155E-18
  -14.49550        9.4009879E-18
  -14.33400        9.3947832E-18
  -14.17250        9.4050072E-18
  -14.01100        9.4291848E-18
  -13.84950        9.4590262E-18
  -13.68800        9.4842263E-18
  -13.52650        9.4971303E-18
  -13.36500        9.4962055E-18
  -13.20350        9.4867731E-18
  -13.04200        9.4786775E-18
  -12.88050        9.4818671E-18
  -12.71900        9.5018518E-18
  -12.55750        9.5370293E-18
  -12.39600        9.5790906E-18
  -12.23450        9.6163791E-18
  -12.07300        9.6387734E-18
  -11.91150        9.6419671E-18
  -11.75000        9.6292840E-18
  -11.58850        9.6102059E-18
  -11.42700        9.5962298E-18
  -11.26550        9.5958576E-18
  -11.10400        9.6108891E-18
  -10.94250        9.6356640E-18
  -10.78100        9.6596001E-18
  -10.61950        9.6719268E-18
  -10.45800        9.6665584E-18
  -10.29650        9.6449690E-18
  -10.13500        9.6157827E-18
  -9.973500        9.5912361E-18
  -9.812000        9.5820007E-18
  -9.650500        9.5926283E-18
  -9.489000        9.6195828E-18
  -9.327500        9.6527560E-18
  -9.166000        9.6798346E-18
  -9.004500        9.6916592E-18
  -8.843000        9.6862486E-18
  -8.681500        9.6697447E-18
  -8.520000        9.6538173E-18
  -8.358500        9.6506285E-18
  -8.197000        9.6674741E-18
  -8.035500        9.7034424E-18
  -7.874000        9.7495469E-18
  -7.712500        9.7923320E-18
  -7.551000        9.8194437E-18
  -7.389500        9.8248088E-18
  -7.228000        9.8111636E-18
  -7.066500        9.7888347E-18
  -6.905000        9.7712612E-18
  -6.743500        9.7691627E-18
  -6.582000        9.7858759E-18
  -6.420500        9.8158959E-18
  -6.259000        9.8472833E-18
  -6.097500        9.8669329E-18
  -5.936000        9.8664441E-18
  -5.774500        9.8460243E-18
  -5.613000        9.8147288E-18
  -5.451500        9.7868536E-18
  -5.290000        9.7759977E-18
  -5.128500        9.7893384E-18
  -4.967000        9.8245598E-18
  -4.805500        9.8707727E-18
  -4.644000        9.9130441E-18
  -4.482500        9.9386156E-18
  -4.321000        9.9421675E-18
  -4.159500        9.9278887E-18
  -3.998000        9.9074888E-18
  -3.836500        9.8950174E-18
  -3.675000        9.9007059E-18
  -3.513500        9.9264742E-18
  -3.352000        9.9650308E-18
  -3.190500        1.0002950E-17
  -3.029000        1.0026441E-17
  -2.867500        1.0027317E-17
  -2.706000        1.0006650E-17
  -2.544500        9.9744995E-18
  -2.383000        9.9458145E-18
  -2.221500        9.9342431E-18
  -2.060000        9.9464275E-18
  -1.898500        9.9792417E-18
  -1.737000        1.0021127E-17
  -1.575500        1.0056977E-17
  -1.414000        1.0074508E-17
  -1.252500        1.0069402E-17
  -1.091000        1.0047033E-17
 -0.9295000        1.0020058E-17
 -0.7680000        1.0002908E-17
 -0.6065000        1.0005549E-17
 -0.4450000        1.0029208E-17
 -0.2835000        1.0065880E-17
 -0.1220000        1.0101813E-17
  3.9500002E-02    1.0123466E-17
  0.2010000        1.0123375E-17
  0.3625000        1.0103388E-17
  0.5240000        1.0073925E-17
  0.6855000        1.0049553E-17
  0.8470000        1.0042825E-17
   1.008500        1.0059001E-17
   1.170000        1.0093891E-17
   1.331500        1.0135734E-17
   1.493000        1.0170237E-17
   1.654500        1.0186624E-17
   1.816000        1.0182106E-17
   1.977500        1.0162893E-17
   2.139000        1.0141387E-17
   2.300500        1.0130774E-17
   2.462000        1.0139367E-17
   2.623500        1.0167091E-17
   2.785000        1.0205583E-17
   2.946500        1.0241831E-17
   3.108000        1.0263760E-17
   3.269500        1.0265360E-17
   3.431000        1.0249173E-17
   3.592500        1.0225113E-17
   3.754000        1.0206136E-17
   3.915500        1.0202659E-17
   4.077000        1.0218114E-17
   4.238500        1.0247544E-17
   4.400000        1.0279806E-17
   4.561500        1.0302448E-17
   4.723000        1.0307096E-17
   4.884500        1.0293070E-17
   5.046000        1.0267652E-17
   5.207500        1.0242919E-17
   5.369000        1.0230543E-17
   5.530500        1.0236828E-17
   5.692000        1.0260133E-17
   5.853500        1.0291752E-17
   6.015000        1.0319836E-17
   6.176500        1.0334594E-17
   6.338000        1.0332502E-17
   6.499500        1.0317695E-17
   6.661000        1.0299993E-17
   6.822500        1.0290452E-17
   6.984000        1.0296448E-17
   7.145500        1.0318421E-17
   7.307000        1.0349695E-17
   7.468500        1.0379414E-17
   7.630000        1.0397263E-17
   7.791500        1.0397922E-17
   7.953000        1.0383322E-17
   8.114500        1.0361775E-17
   8.276000        1.0344389E-17
   8.437500        1.0340341E-17
   8.599000        1.0353044E-17
   8.760500        1.0378839E-17
   8.922000        1.0408740E-17
   9.083500        1.0432431E-17
   9.245000        1.0442800E-17
   9.406500        1.0438995E-17
   9.568000        1.0426708E-17
   9.729500        1.0415563E-17
   9.891000        1.0414748E-17
   10.05250        1.0428819E-17
   10.21400        1.0455510E-17
   10.37550        1.0486547E-17
   10.53700        1.0511129E-17
   10.69850        1.0520598E-17
   10.86000        1.0512233E-17
   11.02150        1.0490523E-17
   11.18300        1.0465303E-17
   11.34450        1.0447572E-17
   11.50600        1.0444814E-17
   11.66750        1.0457877E-17
   11.82900        1.0480810E-17
   11.99050        1.0503686E-17
   12.15200        1.0517166E-17
   12.31350        1.0516765E-17
   12.47500        1.0504910E-17
   12.63650        1.0489895E-17
   12.79800        1.0482189E-17
   12.95950        1.0489745E-17
   13.12100        1.0514377E-17
   13.28250        1.0550814E-17
   13.44400        1.0588844E-17
   13.60550        1.0617611E-17
   13.76700        1.0630193E-17
   13.92850        1.0626479E-17
   14.09000        1.0613102E-17
   14.25150        1.0600489E-17
   14.41300        1.0598301E-17
   14.57450        1.0611228E-17
   14.73600        1.0636947E-17
   14.89750        1.0667108E-17
   15.05900        1.0690935E-17
   15.22050        1.0699914E-17
   15.38200        1.0691544E-17
   15.54350        1.0670530E-17
   15.70500        1.0646866E-17
   15.86650        1.0631618E-17
   16.02800        1.0632188E-17
   16.18950        1.0649114E-17
   16.35100        1.0675827E-17
   16.51250        1.0701483E-17
   16.67400        1.0715725E-17
   16.83550        1.0713281E-17
   16.99700        1.0696413E-17
   17.15850        1.0674096E-17
   17.32000        1.0658225E-17
   17.48150        1.0658467E-17
   17.64300        1.0678003E-17
   17.80450        1.0712028E-17
   17.96600        1.0749693E-17
   18.12750        1.0778689E-17
   18.28900        1.0790463E-17
   18.45050        1.0783806E-17
   18.61200        1.0765272E-17
   18.77350        1.0746218E-17
   18.93500        1.0737799E-17
   19.09650        1.0746064E-17
   19.25800        1.0769307E-17
   19.41950        1.0798826E-17
   19.58100        1.0822742E-17
   19.74250        1.0831229E-17
   19.90400        1.0820900E-17
   20.06550        1.0796428E-17
   20.22700        1.0768705E-17
   20.38850        1.0750344E-17
   20.55000        1.0750397E-17
   20.71150        1.0770564E-17
   20.87300        1.0804496E-17
   21.03450        1.0840464E-17
   21.19600        1.0866303E-17
   21.35750        1.0874513E-17
   21.51900        1.0865385E-17
   21.68050        1.0846794E-17
   21.84200        1.0830754E-17
   22.00350        1.0828188E-17
   22.16500        1.0844142E-17
   22.32650        1.0875502E-17
   22.48800        1.0912207E-17
   22.64950        1.0941475E-17
   22.81100        1.0953243E-17
   22.97250        1.0944505E-17
   23.13400        1.0920680E-17
   23.29550        1.0893371E-17
   23.45700        1.0875470E-17
   23.61850        1.0875662E-17
   23.78000        1.0894725E-17
   23.94150        1.0925193E-17
   24.10300        1.0954587E-17
   24.26450        1.0970791E-17
   24.42600        1.0967283E-17
   24.58750        1.0945965E-17
   24.74900        1.0916367E-17
   24.91050        1.0891607E-17
   25.07200        1.0882823E-17
   25.23350        1.0894498E-17
   25.39500        1.0922651E-17
   25.55650        1.0956657E-17
   25.71800        1.0983889E-17
   25.87950        1.0995170E-17
   26.04100        1.0988703E-17
   26.20250        1.0970801E-17
   26.36400        1.0953131E-17
   26.52550        1.0947668E-17
   26.68700        1.0961521E-17
   26.84850        1.0993827E-17
   27.01000        1.1036006E-17
   27.17150        1.1075279E-17
   27.33300        1.1099964E-17
   27.49450        1.1104290E-17
   27.65600        1.1090738E-17
   27.81750        1.1068893E-17
   27.97900        1.1051305E-17
   28.14050        1.1048111E-17
   28.30200        1.1062723E-17
   28.46350        1.1090415E-17
   28.62500        1.1120423E-17
   28.78650        1.1140665E-17
   28.94800        1.1143023E-17
   29.10950        1.1126949E-17
   29.27100        1.1099779E-17
   29.43250        1.1073650E-17
   29.59400        1.1060320E-17
   29.75550        1.1066139E-17
   29.91700        1.1089369E-17
   30.07850        1.1120995E-17
   30.24000        1.1148669E-17
   30.40150        1.1162076E-17
   30.56300        1.1157362E-17
   30.72450        1.1138726E-17
   30.88600        1.1116524E-17
   31.04750        1.1102719E-17
   31.20900        1.1105711E-17
   31.37050        1.1126732E-17
   31.53200        1.1159370E-17
   31.69350        1.1192364E-17
   31.85500        1.1214466E-17
   32.01650        1.1219236E-17
   32.17800        1.1207736E-17
   32.33950        1.1187984E-17
   32.50100        1.1171420E-17
   32.66250        1.1167907E-17
   32.82400        1.1181441E-17
   32.98550        1.1208392E-17
   33.14700        1.1239029E-17
   33.30850        1.1261717E-17
   33.47000        1.1267949E-17
   33.63150        1.1256088E-17
   33.79300        1.1232161E-17
   33.95450        1.1207355E-17
   34.11600        1.1193240E-17
   34.27750        1.1196812E-17
   34.43900        1.1217500E-17
   34.60050        1.1247484E-17
   34.76200        1.1275191E-17
   34.92350        1.1290438E-17
   35.08500        1.1288968E-17
   35.24650        1.1274335E-17
   35.40800        1.1256327E-17
   35.56950        1.1246595E-17
   35.73100        1.1253429E-17
   35.89250        1.1278001E-17
   36.05400        1.1313742E-17
   36.21550        1.1349132E-17
   36.37700        1.1372666E-17
   36.53850        1.1377813E-17
   36.70000        1.1365776E-17
   36.86150        1.1344871E-17
   37.02300        1.1326818E-17
   37.18450        1.1321586E-17
   37.34600        1.1333052E-17
   37.50750        1.1357352E-17
   37.66900        1.1384619E-17
   37.83050        1.1403332E-17
   37.99200        1.1405390E-17
   38.15350        1.1389715E-17
   38.31500        1.1362812E-17
   38.47650        1.1336059E-17
   38.63800        1.1320857E-17
   38.79950        1.1323767E-17
   38.96100        1.1343716E-17
   39.12250        1.1372509E-17
   39.28400        1.1398431E-17
   39.44550        1.1411397E-17
   39.60700        1.1407414E-17
   39.76850        1.1390380E-17
   39.93000        1.1370436E-17
   40.09150        1.1359519E-17
   40.25300        1.1366067E-17
   40.41450        1.1391188E-17
   40.57600        1.1428011E-17
   40.73750        1.1464540E-17
   40.89900        1.1488788E-17
   41.06050        1.1493946E-17
   41.22200        1.1481293E-17
   41.38350        1.1459565E-17
   41.54500        1.1441034E-17
   41.70650        1.1436035E-17
   41.86800        1.1448350E-17
   42.02950        1.1473515E-17
   42.19100        1.1500807E-17
   42.35250        1.1518028E-17
   42.51400        1.1517013E-17
   42.67550        1.1497372E-17
   42.83700        1.1466829E-17
   42.99850        1.1437975E-17
   43.16000        1.1422866E-17
   43.32150        1.1427865E-17
   43.48300        1.1450952E-17
   43.64450        1.1482721E-17
   43.80600        1.1510563E-17
   43.96750        1.1524213E-17
   44.12900        1.1520215E-17
   44.29050        1.1503348E-17
   44.45200        1.1484438E-17
   44.61350        1.1475503E-17
   44.77500        1.1484394E-17
   44.93650        1.1511270E-17
   45.09800        1.1548437E-17
   45.25950        1.1583614E-17
   45.42100        1.1605179E-17
   45.58250        1.1607155E-17
   45.74400        1.1591732E-17
   45.90550        1.1568302E-17
   46.06700        1.1549378E-17
   46.22850        1.1545192E-17
   46.39000        1.1559275E-17
   46.55150        1.1586933E-17
   46.71300        1.1617304E-17
   46.87450        1.1638116E-17
   47.03600        1.1641103E-17
   47.19750        1.1625734E-17
   47.35900        1.1599593E-17
   47.52050        1.1575203E-17
   47.68200        1.1564644E-17
   47.84350        1.1574283E-17
   48.00500        1.1601947E-17
   48.16650        1.1637813E-17
   48.32800        1.1668664E-17
   48.48950        1.1683667E-17
   48.65100        1.1679150E-17
   48.81250        1.1660227E-17
   48.97400        1.1638533E-17
   49.13550        1.1627064E-17
   49.29700        1.1634371E-17
   49.45850        1.1660724E-17
   49.62000        1.1697910E-17
   49.78150        1.1732783E-17
   49.94300        1.1752959E-17
   50.10450        1.1752162E-17
   50.26600        1.1732866E-17
   50.42750        1.1705136E-17
   50.58900        1.1682186E-17
   50.75050        1.1674644E-17
   50.91200        1.1686010E-17
   51.07350        1.1711236E-17
   51.23500        1.1739025E-17
   51.39650        1.1756794E-17
   51.55800        1.1756154E-17
   51.71950        1.1736572E-17
   51.88100        1.1705657E-17
   52.04250        1.1675966E-17
   52.20400        1.1659711E-17
   52.36550        1.1663590E-17
   52.52700        1.1685943E-17
   52.68850        1.1717453E-17
   52.85000        1.1745114E-17
   53.01150        1.1757799E-17
   53.17300        1.1751084E-17
   53.33450        1.1729217E-17
   53.49600        1.1703367E-17
   53.65750        1.1686838E-17
   53.81900        1.1689287E-17
   53.98050        1.1712456E-17
   54.14200        1.1749306E-17
   54.30350        1.1786978E-17
   54.46500        1.1812338E-17
   54.62650        1.1817704E-17
   54.78800        1.1804223E-17
   54.94950        1.1781395E-17
   55.11100        1.1762914E-17
   55.27250        1.1760616E-17
   55.43400        1.1779206E-17
   55.59550        1.1814095E-17
   55.75700        1.1853304E-17
   55.91850        1.1882616E-17
   56.08000        1.1891725E-17
   56.24150        1.1878680E-17
   56.40300        1.1850706E-17
   56.56450        1.1821052E-17
   56.72600        1.1803262E-17
   56.88750        1.1805355E-17
   57.04900        1.1826434E-17
   57.21050        1.1857172E-17
   57.37200        1.1883949E-17
   57.53350        1.1894846E-17
   57.69500        1.1884905E-17
   57.85650        1.1858372E-17
   58.01800        1.1826981E-17
   58.17950        1.1804974E-17
   58.34100        1.1803008E-17
   58.50250        1.1823546E-17
   58.66400        1.1859739E-17
   58.82550        1.1898287E-17
   58.98700        1.1925081E-17
   59.14850        1.1931247E-17
   59.31000        1.1916955E-17
   59.47150        1.1891332E-17
   59.63300        1.1868481E-17
   59.79450        1.1861272E-17
   59.95600        1.1875619E-17
   60.11750        1.1907752E-17
   60.27900        1.1945725E-17
   60.44050        1.1974563E-17
   60.60200        1.1982815E-17
   60.76350        1.1967648E-17
   60.92500        1.1936217E-17
   61.08650        1.1902651E-17
   61.24800        1.1881962E-17
   61.40950        1.1883518E-17
   61.57100        1.1906970E-17
   61.73250        1.1942437E-17
   61.89400        1.1974901E-17
   62.05550        1.1990854E-17
   62.21700        1.1984280E-17
   62.37850        1.1959314E-17
   62.54000        1.1928424E-17
   62.70150        1.1906913E-17
   62.86300        1.1906177E-17
   63.02450        1.1928676E-17
   63.18600        1.1966818E-17
   63.34750        1.2006221E-17
   63.50900        1.2031938E-17
   63.67050        1.2034901E-17
   63.83200        1.2015814E-17
   63.99350        1.1984784E-17
   64.15500        1.1956883E-17
   64.31650        1.1945569E-17
   64.47800        1.1956836E-17
   64.63950        1.1986620E-17
   64.80100        1.2022599E-17
   64.96250        1.2049612E-17
   65.12400        1.2056339E-17
   65.28550        1.2040337E-17
   65.44700        1.2009219E-17
   65.60850        1.1977420E-17
   65.77000        1.1959932E-17
   65.93150        1.1965751E-17
   66.09300        1.1993901E-17
   66.25450        1.2033853E-17
   66.41600        1.2070150E-17
   66.57750        1.2089231E-17
   66.73900        1.2085418E-17
   66.90050        1.2063385E-17
   67.06200        1.2035994E-17
   67.22350        1.2018471E-17
   67.38500        1.2021523E-17
   67.54650        1.2046497E-17
   67.70800        1.2084741E-17
   67.86950        1.2121463E-17
   68.03100        1.2142326E-17
   68.19250        1.2139821E-17
   68.35400        1.2116561E-17
   68.51550        1.2084072E-17
   68.67700        1.2057659E-17
   68.83850        1.2049665E-17
   69.00000        1.2064155E-17
   69.16150        1.2095326E-17
   69.32300        1.2130274E-17
   69.48450        1.2154840E-17
   69.64600        1.2159915E-17
   69.80750        1.2145417E-17
   69.96900        1.2120261E-17
   70.13050        1.2098347E-17
   70.29200        1.2092361E-17
   70.45350        1.2108113E-17
   70.61500        1.2141880E-17
   70.77650        1.2181903E-17
   70.93800        1.2213409E-17
   71.09950        1.2224954E-17
   71.26100        1.2213359E-17
   71.42250        1.2185056E-17
   71.58400        1.2153260E-17
   71.74550        1.2132170E-17
   71.90700        1.2130737E-17
   72.06850        1.2148762E-17
   72.23000        1.2177063E-17
   72.39150        1.2201690E-17
   72.55300        1.2210319E-17
   72.71450        1.2197944E-17
   72.87600        1.2169295E-17
   73.03750        1.2136834E-17
   73.19900        1.2115227E-17
   73.36050        1.2114771E-17
   73.52200        1.2136752E-17
   73.68350        1.2172855E-17
   73.84500        1.2208876E-17
   74.00650        1.2231052E-17
   74.16800        1.2232143E-17
   74.32950        1.2214523E-17
   74.49100        1.2188930E-17
   74.65250        1.2169493E-17
   74.81400        1.2167317E-17
   74.97550        1.2185548E-17
   75.13700        1.2218059E-17
   75.29850        1.2252293E-17
   75.46000        1.2274881E-17
   75.62150        1.2277530E-17
   75.78300        1.2260559E-17
   75.94450        1.2232641E-17
   76.10600        1.2206912E-17
   76.26750        1.2195232E-17
   76.42900        1.2203091E-17
   76.59050        1.2227342E-17
   76.75200        1.2257687E-17
   76.91350        1.2281212E-17
   77.07500        1.2288000E-17
   77.23650        1.2275392E-17
   77.39800        1.2249108E-17
   77.55950        1.2220760E-17
   77.72100        1.2202845E-17
   77.88250        1.2203377E-17
   78.04400        1.2222456E-17
   78.20550        1.2252264E-17
   78.36700        1.2280509E-17
   78.52850        1.2295831E-17
   78.69000        1.2292811E-17
   78.85150        1.2274362E-17
   79.01300        1.2250429E-17
   79.17450        1.2233558E-17
   79.33600        1.2233294E-17
   79.49750        1.2251929E-17
   79.65900        1.2283499E-17
   79.82050        1.2316484E-17
   79.98200        1.2338979E-17
   80.14350        1.2344004E-17
   80.30500        1.2332571E-17
   80.46650        1.2313133E-17
   80.62800        1.2297717E-17
   80.78950        1.2296513E-17
   80.95100        1.2313363E-17
   81.11250        1.2344156E-17
   81.27400        1.2378751E-17
   81.43550        1.2405485E-17
   81.59700        1.2416202E-17
   81.75850        1.2409597E-17
   81.92000        1.2391499E-17
   82.08150        1.2372097E-17
   82.24300        1.2361424E-17
   82.40450        1.2365090E-17
   82.56600        1.2382050E-17
   82.72750        1.2405283E-17
   82.88900        1.2424996E-17
   83.05050        1.2432936E-17
   83.21200        1.2425961E-17
   83.37350        1.2407416E-17
   83.53500        1.2385764E-17
   83.69650        1.2371069E-17
   83.85800        1.2370824E-17
   84.01950        1.2386837E-17
   84.18100        1.2414473E-17
   84.34250        1.2444601E-17
   84.50400        1.2467415E-17
   84.66550        1.2476551E-17
   84.82700        1.2471719E-17
   84.98850        1.2458678E-17
   85.15000        1.2446555E-17
   85.31150        1.2443657E-17
   85.47300        1.2453630E-17
   85.63450        1.2473717E-17
   85.79600        1.2495882E-17
   85.95750        1.2510321E-17
   86.11900        1.2509817E-17
   86.28050        1.2492948E-17
   86.44200        1.2464767E-17
   86.60350        1.2434645E-17
   86.76500        1.2412268E-17
   86.92650        1.2403596E-17
   87.08800        1.2408544E-17
   87.24950        1.2421360E-17
   87.41100        1.2433430E-17
   87.57250        1.2437187E-17
   87.73400        1.2429388E-17
   87.89550        1.2412405E-17
   88.05700        1.2393049E-17
   88.21850        1.2379564E-17
   88.38000        1.2378104E-17
   88.54150        1.2390177E-17
   88.70300        1.2412061E-17
   88.86450        1.2436389E-17
   89.02600        1.2455192E-17
   89.18750        1.2463145E-17
   89.34900        1.2459694E-17
   89.51050        1.2449198E-17
   89.67200        1.2439051E-17
   89.83350        1.2436541E-17
   89.99500        1.2445736E-17
   90.15650        1.2465688E-17
   90.31800        1.2490733E-17
   90.47950        1.2512835E-17
   90.64100        1.2525007E-17
   90.80250        1.2524385E-17
   90.96400        1.2513569E-17
   91.12550        1.2499589E-17
   91.28700        1.2490873E-17
   91.44850        1.2493558E-17
   91.61000        1.2508770E-17
   91.77150        1.2532136E-17
   91.93300        1.2555761E-17
   92.09450        1.2571790E-17
   92.25600        1.2575933E-17
   92.41750        1.2569394E-17
   92.57900        1.2558293E-17
   92.74050        1.2550874E-17
   92.90200        1.2553772E-17
   93.06350        1.2569008E-17
   93.22500        1.2593070E-17
   93.38650        1.2618436E-17
   93.54800        1.2636826E-17
   93.70950        1.2642719E-17
   93.87100        1.2635616E-17
   94.03250        1.2620123E-17
   94.19400        1.2603900E-17
   94.35550        1.2594407E-17
   94.51700        1.2595809E-17
   94.67850        1.2607324E-17
   94.84000        1.2623661E-17
   95.00150        1.2637356E-17
   95.16300        1.2642007E-17
   95.32450        1.2635089E-17
   95.48600        1.2619121E-17
   95.64750        1.2600701E-17
   95.80900        1.2587762E-17
   95.97050        1.2586159E-17
   96.13200        1.2597055E-17
   96.29350        1.2616251E-17
   96.45500        1.2635817E-17
   96.61650        1.2647444E-17
   96.77800        1.2646070E-17
   96.93950        1.2632204E-17
   97.10100        1.2611837E-17
   97.26250        1.2593867E-17
   97.42400        1.2586187E-17
   97.58550        1.2592142E-17
   97.74700        1.2609019E-17
   97.90850        1.2629297E-17
   98.07000        1.2644093E-17
   98.23150        1.2647257E-17
   98.39300        1.2638230E-17
   98.55450        1.2622350E-17
   98.71600        1.2608472E-17
   98.87750        1.2604960E-17
   99.03900        1.2615886E-17
   99.20050        1.2639159E-17
   99.36200        1.2667395E-17
   99.52350        1.2691133E-17
   99.68500        1.2702916E-17
   99.84650        1.2700424E-17
   100.0080        1.2687314E-17
   100.1695        1.2671480E-17
   100.3310        1.2661549E-17
   100.4925        1.2663149E-17
   100.6540        1.2676546E-17
   100.8155        1.2696622E-17
   100.9770        1.2715145E-17
   101.1385        1.2724384E-17
   101.3000        1.2720474E-17
   101.4615        1.2705152E-17
   101.6230        1.2685062E-17
   101.7845        1.2668973E-17
   101.9460        1.2664032E-17
   102.1075        1.2672695E-17
   102.2690        1.2691632E-17
   102.4305        1.2713140E-17
   102.5920        1.2728472E-17
   102.7535        1.2731694E-17
   102.9150        1.2722363E-17
   103.0765        1.2705802E-17
   103.2380        1.2690795E-17
   103.3995        1.2685663E-17
   103.5610        1.2694498E-17
   103.7225        1.2715257E-17
   103.8840        1.2740630E-17
   104.0455        1.2761282E-17
   104.2070        1.2770005E-17
   104.3685        1.2764868E-17
   104.5300        1.2749944E-17
   104.6915        1.2733325E-17
   104.8530        1.2723356E-17
   105.0145        1.2724859E-17
   105.1760        1.2737054E-17
   105.3375        1.2754094E-17
   105.4990        1.2767901E-17
   105.6605        1.2771914E-17
   105.8220        1.2764041E-17
   105.9835        1.2747506E-17
   106.1450        1.2729311E-17
   106.3065        1.2717123E-17
   106.4680        1.2716018E-17
   106.6295        1.2726499E-17
   106.7910        1.2744538E-17
   106.9525        1.2763538E-17
   107.1140        1.2777229E-17
   107.2755        1.2782263E-17
   107.4370        1.2779423E-17
   107.5985        1.2773000E-17
   107.7600        1.2768695E-17
   107.9215        1.2771005E-17
   108.0830        1.2781211E-17
   108.2445        1.2796827E-17
   108.4060        1.2812706E-17
   108.5675        1.2823286E-17
   108.7290        1.2825041E-17
   108.8905        1.2818044E-17
   109.0520        1.2805982E-17
   109.2135        1.2794585E-17
   109.3750        1.2789159E-17
   109.5365        1.2792305E-17
   109.6980        1.2802882E-17
   109.8595        1.2816662E-17
   110.0210        1.2828407E-17
   110.1825        1.2834352E-17
   110.3440        1.2833934E-17
   110.5055        1.2829951E-17
   110.6670        1.2827094E-17
   110.8285        1.2829567E-17
   110.9900        1.2838972E-17
   111.1515        1.2853490E-17
   111.3130        1.2868725E-17
   111.4745        1.2879830E-17
   111.6360        1.2883816E-17
   111.7975        1.2880947E-17
   111.9590        1.2874525E-17
   112.1205        1.2869242E-17
   112.2820        1.2868910E-17
   112.4435        1.2874732E-17
   112.6050        1.2884897E-17
   112.7665        1.2895655E-17
   112.9280        1.2903241E-17
   113.0895        1.2905704E-17
   113.2510        1.2903750E-17
   113.4125        1.2900272E-17
   113.5740        1.2898831E-17
   113.7355        1.2901900E-17
   113.8970        1.2909671E-17
   114.0585        1.2919995E-17
   114.2200        1.2929400E-17
   114.3815        1.2934684E-17
   114.5430        1.2934337E-17
   114.7045        1.2929166E-17
   114.8660        1.2921871E-17
   115.0275        1.2915807E-17
   115.1890        1.2913476E-17
   115.3505        1.2915414E-17
   115.5120        1.2919936E-17
   115.6735        1.2923884E-17
   115.8350        1.2924062E-17
   115.9965        1.2918755E-17
   116.1580        1.2908643E-17
   116.3195        1.2896629E-17
   116.4810        1.2886602E-17
   116.6425        1.2881644E-17
   116.8040        1.2882505E-17
   116.9655        1.2887121E-17
   117.1270        1.2891486E-17
   117.2885        1.2891565E-17
   117.4500        1.2885364E-17
   117.6115        1.2874128E-17
   117.7730        1.2862023E-17
   117.9345        1.2854328E-17
   118.0960        1.2854974E-17
   118.2575        1.2864618E-17
   118.4190        1.2880237E-17
   118.5805        1.2896494E-17
   118.7420        1.2908238E-17