  -27.90000       -3.8377748E-18
  -27.73850       -3.8383426E-18
  -27.57700       -3.8393175E-18
  -27.41550       -3.8404271E-18
  -27.25400       -3.8413631E-18
  -27.09250       -3.8418933E-18
  -26.93100       -3.8419661E-18
  -26.76950       -3.8417481E-18
  -26.60800       -3.8415637E-18
  -26.44650       -3.8417378E-18
  -26.28500       -3.8424310E-18
  -26.12350       -3.8435543E-18
  -25.96200       -3.8448240E-18
  -25.80050       -3.8459055E-18
  -25.63900       -3.8465660E-18
  -25.47750       -3.8467472E-18
  -25.31600       -3.8465466E-18
  -25.15450       -3.8461508E-18
  -24.99300       -3.8457736E-18
  -24.83150       -3.8456173E-18
  -24.67000       -3.8458377E-18
  -24.50850       -3.8464788E-18
  -24.34700       -3.8474218E-18
  -24.18550       -3.8483941E-18
  -24.02400       -3.8490769E-18
  -23.86250       -3.8492684E-18
  -23.70100       -3.8489975E-18
  -23.53950       -3.8485099E-18
  -23.37800       -3.8481290E-18
  -23.21650       -3.8480959E-18
  -23.05500       -3.8484735E-18
  -22.89350       -3.8491692E-18
  -22.73200       -3.8500050E-18
  -22.57050       -3.8507880E-18
  -22.40900       -3.8513405E-18
  -22.24750       -3.8515345E-18
  -22.08600       -3.8513463E-18
  -21.92450       -3.8509100E-18
  -21.76300       -3.8505018E-18
  -21.60150       -3.8504211E-18
  -21.44000       -3.8508277E-18
  -21.27850       -3.8516387E-18
  -21.11700       -3.8525714E-18
  -20.95550       -3.8533001E-18
  -20.79400       -3.8536269E-18
  -20.63250       -3.8535491E-18
  -20.47100       -3.8532141E-18
  -20.30950       -3.8528241E-18
  -20.14800       -3.8525623E-18
  -19.98650       -3.8525648E-18
  -19.82500       -3.8528998E-18
  -19.66350       -3.8535383E-18
  -19.50200       -3.8543324E-18
  -19.34050       -3.8550558E-18
  -19.17900       -3.8555083E-18
  -19.01750       -3.8556228E-18
  -18.85600       -3.8554901E-18
  -18.69450       -3.8552833E-18
  -18.53300       -3.8551414E-18
  -18.37150       -3.8551145E-18
  -18.21000       -3.8551886E-18
  -18.04850       -3.8553524E-18
  -17.88700       -3.8556166E-18
  -17.72550       -3.8559744E-18
  -17.56400       -3.8563561E-18
  -17.40250       -3.8566448E-18
  -17.24100       -3.8567602E-18
  -17.07950       -3.8567308E-18
  -16.91800       -3.8566862E-18
  -16.75650       -3.8567602E-18
  -16.59500       -3.8570026E-18
  -16.43350       -3.8573641E-18
  -16.27200       -3.8577594E-18
  -16.11050       -3.8581342E-18
  -15.94900       -3.8584617E-18
  -15.78750       -3.8587008E-18
  -15.62600       -3.8587893E-18
  -15.46450       -3.8587082E-18
  -15.30300       -3.8585684E-18
  -15.14150       -3.8586040E-18
  -14.98000       -3.8590449E-18
  -14.81850       -3.8599395E-18
  -14.65700       -3.8610835E-18
  -14.49550       -3.8621216E-18
  -14.33400       -3.8627494E-18
  -14.17250       -3.8628586E-18
  -14.01100       -3.8625385E-18
  -13.84950       -3.8619615E-18
  -13.68800       -3.8612808E-18
  -13.52650       -3.8606103E-18
  -13.36500       -3.8600532E-18
  -13.20350       -3.8596930E-18
  -13.04200       -3.8595218E-18
  -12.88050       -3.8593886E-18
  -12.71900       -3.8590598E-18
  -12.55750       -3.8583914E-18
  -12.39600       -3.8574794E-18
  -12.23450       -3.8566498E-18
  -12.07300       -3.8562776E-18
  -11.91150       -3.8565695E-18
  -11.75000       -3.8574770E-18
  -11.58850       -3.8587802E-18
  -11.42700       -3.8602447E-18
  -11.26550       -3.8617005E-18
  -11.10400       -3.8630145E-18
  -10.94250       -3.8640477E-18
  -10.78100       -3.8646817E-18
  -10.61950       -3.8649199E-18
  -10.45800       -3.8649344E-18
  -10.29650       -3.8649758E-18
  -10.13500       -3.8651867E-18
  -9.973500       -3.8654775E-18
  -9.812000       -3.8655809E-18
  -9.650500       -3.8652487E-18
  -9.489000       -3.8644224E-18
  -9.327500       -3.8632536E-18
  -9.166000       -3.8619847E-18
  -9.004500       -3.8608304E-18
  -8.843000       -3.8599577E-18
  -8.681500       -3.8595408E-18
  -8.520000       -3.8597563E-18
  -8.358500       -3.8606897E-18
  -8.197000       -3.8622097E-18
  -8.035500       -3.8639724E-18
  -7.874000       -3.8655970E-18
  -7.712500       -3.8668907E-18
  -7.551000       -3.8679445E-18
  -7.389500       -3.8690095E-18
  -7.228000       -3.8702739E-18
  -7.066500       -3.8717322E-18
  -6.905000       -3.8732298E-18
  -6.743500       -3.8746104E-18
  -6.582000       -3.8757883E-18
  -6.420500       -3.8767039E-18
  -6.259000       -3.8772309E-18
  -6.097500       -3.8771941E-18
  -5.936000       -3.8765021E-18
  -5.774500       -3.8752696E-18
  -5.613000       -3.8737848E-18
  -5.451500       -3.8723162E-18
  -5.290000       -3.8709277E-18
  -5.128500       -3.8694636E-18
  -4.967000       -3.8677249E-18
  -4.805500       -3.8656640E-18
  -4.644000       -3.8634223E-18
  -4.482500       -3.8611956E-18
  -4.321000       -3.8590813E-18
  -4.159500       -3.8570642E-18
  -3.998000       -3.8551410E-18
  -3.836500       -3.8534370E-18
  -3.675000       -3.8521669E-18
  -3.513500       -3.8514704E-18
  -3.352000       -3.8512768E-18
  -3.190500       -3.8513546E-18
  -3.029000       -3.8515022E-18
  -2.867500       -3.8517165E-18
  -2.706000       -3.8521735E-18
  -2.544500       -3.8530578E-18
  -2.383000       -3.8544094E-18
  -2.221500       -3.8561220E-18
  -2.060000       -3.8580725E-18
  -1.898500       -3.8602195E-18
  -1.737000       -3.8625831E-18
  -1.575500       -3.8651309E-18
  -1.414000       -3.8677166E-18
  -1.252500       -3.8701701E-18
  -1.091000       -3.8724398E-18
 -0.9295000       -3.8746513E-18
 -0.7680000       -3.8769910E-18
 -0.6065000       -3.8795118E-18
 -0.4450000       -3.8820397E-18
 -0.2835000       -3.8842640E-18
 -0.1220000       -3.8859374E-18
  3.9500002E-02   -3.8870114E-18
  0.2010000       -3.8876140E-18
  0.3625000       -3.8879156E-18
  0.5240000       -3.8880210E-18
  0.6855000       -3.8879648E-18
  0.8470000       -3.8877629E-18
   1.008500       -3.8874288E-18
   1.170000       -3.8869242E-18
   1.331500       -3.8861247E-18
   1.493000       -3.8848790E-18
   1.654500       -3.8831386E-18
   1.816000       -3.8810620E-18
   1.977500       -3.8789655E-18
   2.139000       -3.8771634E-18
   2.300500       -3.8758007E-18
   2.462000       -3.8748184E-18
   2.623500       -3.8740537E-18
   2.785000       -3.8733659E-18
   2.946500       -3.8726930E-18
   3.108000       -3.8720217E-18
   3.269500       -3.8713480E-18
   3.431000       -3.8706854E-18
   3.592500       -3.8701022E-18
   3.754000       -3.8697180E-18
   3.915500       -3.8696146E-18
   4.077000       -3.8697403E-18
   4.238500       -3.8698991E-18
   4.400000       -3.8698532E-18
   4.561500       -3.8694723E-18
   4.723000       -3.8687998E-18
   4.884500       -3.8679929E-18
   5.046000       -3.8672108E-18
   5.207500       -3.8665462E-18
   5.369000       -3.8660424E-18
   5.530500       -3.8657426E-18
   5.692000       -3.8656805E-18
   5.853500       -3.8658149E-18
   6.015000       -3.8659849E-18
   6.176500       -3.8659733E-18
   6.338000       -3.8656516E-18
   6.499500       -3.8650961E-18
   6.661000       -3.8645618E-18
   6.822500       -3.8643285E-18
   6.984000       -3.8645283E-18
   7.145500       -3.8650941E-18
   7.307000       -3.8658369E-18
   7.468500       -3.8665685E-18
   7.630000       -3.8671690E-18
   7.791500       -3.8675764E-18
   7.953000       -3.8677725E-18
   8.114500       -3.8678134E-18
   8.276000       -3.8678717E-18
   8.437500       -3.8682134E-18
   8.599000       -3.8690645E-18
   8.760500       -3.8704414E-18
   8.922000       -3.8720854E-18
   9.083500       -3.8735818E-18
   9.245000       -3.8745876E-18
   9.406500       -3.8750219E-18
   9.568000       -3.8750798E-18
   9.729500       -3.8750897E-18
   9.891000       -3.8753337E-18
   10.05250       -3.8759417E-18
   10.21400       -3.8768901E-18
   10.37550       -3.8780481E-18
   10.53700       -3.8792066E-18
   10.69850       -3.8801148E-18
   10.86000       -3.8805599E-18
   11.02150       -3.8804937E-18
   11.18300       -3.8801297E-18
   11.34450       -3.8799002E-18
   11.50600       -3.8802645E-18
   11.66750       -3.8814623E-18
   11.82900       -3.8833789E-18
   11.99050       -3.8855990E-18
   12.15200       -3.8876091E-18
   12.31350       -3.8890095E-18
   12.47500       -3.8896349E-18
   12.63650       -3.8895505E-18
   12.79800       -3.8889905E-18
   12.95950       -3.8882717E-18
   13.12100       -3.8877067E-18
   13.28250       -3.8874875E-18
   13.44400       -3.8875768E-18
   13.60550       -3.8876699E-18
   13.76700       -3.8873005E-18
   13.92850       -3.8860606E-18
   14.09000       -3.8838194E-18
   14.25150       -3.8808126E-18
   14.41300       -3.8775522E-18
   14.57450       -3.8746124E-18
   14.73600       -3.8724163E-18
   14.89750       -3.8711163E-18
   15.05900       -3.8705816E-18
   15.22050       -3.8704699E-18
   15.38200       -3.8703479E-18
   15.54350       -3.8698417E-18
   15.70500       -3.8687990E-18
   15.86650       -3.8673895E-18
   16.02800       -3.8660763E-18
   16.18950       -3.8654386E-18
   16.35100       -3.8659059E-18
   16.51250       -3.8675429E-18
   16.67400       -3.8699980E-18
   16.83550       -3.8726384E-18
   16.99700       -3.8747932E-18
   17.15850       -3.8760004E-18
   17.32000       -3.8761580E-18
   17.48150       -3.8755459E-18
   17.64300       -3.8747369E-18
   17.80450       -3.8743953E-18
   17.96600       -3.8750330E-18
   18.12750       -3.8767929E-18
   18.28900       -3.8793584E-18
   18.45050       -3.8820628E-18
   18.61200       -3.8841635E-18
   18.77350       -3.8851561E-18
   18.93500       -3.8849931E-18
   19.09650       -3.8840944E-18
   19.25800       -3.8831646E-18
   19.41950       -3.8829148E-18
   19.58100       -3.8837867E-18
   19.74250       -3.8857852E-18
   19.90400       -3.8884582E-18
   20.06550       -3.8910357E-18
   20.22700       -3.8927078E-18
   20.38850       -3.8929403E-18
   20.55000       -3.8917102E-18
   20.71150       -3.8895339E-18
   20.87300       -3.8872600E-18
   21.03450       -3.8857086E-18
   21.19600       -3.8853327E-18
   21.35750       -3.8860345E-18
   21.51900       -3.8872294E-18
   21.68050       -3.8880843E-18
   21.84200       -3.8878452E-18
   22.00350       -3.8861301E-18
   22.16500       -3.8830976E-18
   22.32650       -3.8794270E-18
   22.48800       -3.8760985E-18
   22.64950       -3.8740280E-18
   22.81100       -3.8737029E-18
   22.97250       -3.8749756E-18
   23.13400       -3.8771266E-18
   23.29550       -3.8791789E-18
   23.45700       -3.8803092E-18
   23.61850       -3.8801727E-18
   23.78000       -3.8790060E-18
   23.94150       -3.8774956E-18
   24.10300       -3.8764918E-18
   24.26450       -3.8766771E-18
   24.42600       -3.8783066E-18
   24.58750       -3.8810921E-18
   24.74900       -3.8842904E-18
   24.91050       -3.8869730E-18
   25.07200       -3.8884015E-18
   25.23350       -3.8883370E-18
   25.39500       -3.8871401E-18
   25.55650       -3.8855937E-18
   25.71800       -3.8845518E-18
   25.87950       -3.8845758E-18
   26.04100       -3.8857306E-18
   26.20250       -3.8875979E-18
   26.36400       -3.8894702E-18
   26.52550       -3.8906233E-18
   26.68700       -3.8905795E-18
   26.84850       -3.8892783E-18
   27.01000       -3.8871091E-18
   27.17150       -3.8847719E-18
   27.33300       -3.8830025E-18
   27.49450       -3.8822676E-18
   27.65600       -3.8825753E-18
   27.81750       -3.8834988E-18
   27.97900       -3.8844038E-18
   28.14050       -3.8847503E-18
   28.30200       -3.8843289E-18
   28.46350       -3.8833206E-18
   28.62500       -3.8822030E-18
   28.78650       -3.8815620E-18
   28.94800       -3.8818854E-18
   29.10950       -3.8833934E-18
   29.27100       -3.8859539E-18
   29.43250       -3.8891063E-18
   29.59400       -3.8922252E-18
   29.75550       -3.8947555E-18
   29.91700       -3.8964351E-18
   30.07850       -3.8973735E-18
   30.24000       -3.8979550E-18
   30.40150       -3.8986205E-18
   30.56300       -3.8996532E-18
   30.72450       -3.9010644E-18
   30.88600       -3.9026021E-18
   31.04750       -3.9038446E-18
   31.20900       -3.9043363E-18
   31.37050       -3.9037312E-18
   31.53200       -3.9019354E-18
   31.69350       -3.8991867E-18
   31.85500       -3.8960219E-18
   32.01650       -3.8930949E-18
   32.17800       -3.8909219E-18
   32.33950       -3.8896733E-18
   32.50100       -3.8891286E-18
   32.66250       -3.8888064E-18
   32.82400       -3.8881997E-18
   32.98550       -3.8869804E-18
   33.14700       -3.8851139E-18
   33.30850       -3.8828739E-18
   33.47000       -3.8807729E-18
   33.63150       -3.8794150E-18
   33.79300       -3.8792939E-18
   33.95450       -3.8805640E-18
   34.11600       -3.8829136E-18
   34.27750       -3.8856267E-18
   34.43900       -3.8878535E-18
   34.60050       -3.8889582E-18
   34.76200       -3.8887733E-18
   34.92350       -3.8876302E-18
   35.08500       -3.8861727E-18
   35.24650       -3.8850845E-18
   35.40800       -3.8848463E-18
   35.56950       -3.8855949E-18
   35.73100       -3.8870809E-18
   35.89250       -3.8887332E-18
   36.05400       -3.8898342E-18
   36.21550       -3.8897945E-18
   36.37700       -3.8884338E-18
   36.53850       -3.8861189E-18
   36.70000       -3.8836593E-18
   36.86150       -3.8819785E-18
   37.02300       -3.8817332E-18
   37.18450       -3.8830695E-18
   37.34600       -3.8856135E-18
   37.50750       -3.8886493E-18
   37.66900       -3.8913699E-18
   37.83050       -3.8931074E-18
   37.99200       -3.8935135E-18
   38.15350       -3.8926743E-18
   38.31500       -3.8911172E-18
   38.47650       -3.8896514E-18
   38.63800       -3.8890529E-18
   38.79950       -3.8897192E-18
   38.96100       -3.8914786E-18
   39.12250       -3.8936674E-18
   39.28400       -3.8954243E-18
   39.44550       -3.8960447E-18
   39.60700       -3.8952121E-18
   39.76850       -3.8930652E-18
   39.93000       -3.8901179E-18
   40.09150       -3.8871153E-18
   40.25300       -3.8848372E-18
   40.41450       -3.8838607E-18
   40.57600       -3.8843314E-18
   40.73750       -3.8858766E-18
   40.89900       -3.8877344E-18
   41.06050       -3.8890976E-18
   41.22200       -3.8894798E-18
   41.38350       -3.8889185E-18
   41.54500       -3.8879040E-18
   41.70650       -3.8871248E-18
   41.86800       -3.8871831E-18
   42.02950       -3.8884081E-18
   42.19100       -3.8907817E-18
   42.35250       -3.8939445E-18
   42.51400       -3.8972755E-18
   42.67550       -3.9000681E-18
   42.83700       -3.9017878E-18
   42.99850       -3.9023155E-18
   43.16000       -3.9020153E-18
   43.32150       -3.9015516E-18
   43.48300       -3.9015496E-18
   43.64450       -3.9022936E-18
   43.80600       -3.9036407E-18
   43.96750       -3.9051627E-18
   44.12900       -3.9063836E-18
   44.29050       -3.9069618E-18
   44.45200       -3.9067571E-18
   44.61350       -3.9058327E-18
   44.77500       -3.9044277E-18
   44.93650       -3.9028995E-18
   45.09800       -3.9015955E-18
   45.25950       -3.9006852E-18
   45.42100       -3.9000528E-18
   45.58250       -3.8993662E-18
   45.74400       -3.8983008E-18
   45.90550       -3.8967680E-18
   46.06700       -3.8949793E-18
   46.22850       -3.8932906E-18
   46.39000       -3.8919489E-18
   46.55150       -3.8909352E-18
   46.71300       -3.8900009E-18
   46.87450       -3.8888366E-18
   47.03600       -3.8872488E-18
   47.19750       -3.8852512E-18
   47.35900       -3.8830819E-18
   47.52050       -3.8811798E-18
   47.68200       -3.8801066E-18
   47.84350       -3.8803733E-18
   48.00500       -3.8821939E-18
   48.16650       -3.8852764E-18
   48.32800       -3.8888379E-18
   48.48950       -3.8919013E-18
   48.65100       -3.8937426E-18
   48.81250       -3.8942348E-18
   48.97400       -3.8938828E-18
   49.13550       -3.8935495E-18
   49.29700       -3.8940470E-18
   49.45850       -3.8957953E-18
   49.62000       -3.8986639E-18
   49.78150       -3.9019995E-18
   49.94300       -3.9048045E-18
   50.10450       -3.9060656E-18
   50.26600       -3.9051573E-18
   50.42750       -3.9021956E-18
   50.58900       -3.8981205E-18
   50.75050       -3.8943812E-18
   50.91200       -3.8923253E-18
   51.07350       -3.8925842E-18
   51.23500       -3.8947882E-18
   51.39650       -3.8977602E-18
   51.55800       -3.9000528E-18
   51.71950       -3.9005545E-18
   51.88100       -3.8989100E-18
   52.04250       -3.8956344E-18
   52.20400       -3.8919328E-18
   52.36550       -3.8892796E-18
   52.52700       -3.8888544E-18
   52.68850       -3.8910154E-18
   52.85000       -3.8950496E-18
   53.01150       -3.8993935E-18
   53.17300       -3.9022965E-18
   53.33450       -3.9026439E-18
   53.49600       -3.9004953E-18
   53.65750       -3.8970563E-18
   53.81900       -3.8941078E-18
   53.98050       -3.8932033E-18
   54.14200       -3.8950148E-18
   54.30350       -3.8990891E-18
   54.46500       -3.9040427E-18
   54.62650       -3.9080934E-18
   54.78800       -3.9097473E-18
   54.94950       -3.9084127E-18
   55.11100       -3.9047127E-18
   55.27250       -3.9002898E-18
   55.43400       -3.8971072E-18
   55.59550       -3.8965261E-18
   55.75700       -3.8986193E-18
   55.91850       -3.9021075E-18
   56.08000       -3.9049828E-18
   56.24150       -3.9054981E-18
   56.40300       -3.9030099E-18
   56.56450       -3.8982884E-18
   56.72600       -3.8931930E-18
   56.88750       -3.8899016E-18
   57.04900       -3.8900158E-18
   57.21050       -3.8938609E-18
   57.37200       -3.9002397E-18
   57.53350       -3.9067753E-18
   57.69500       -3.9108032E-18
   57.85650       -3.9105042E-18
   58.01800       -3.9057814E-18
   58.17950       -3.8984207E-18
   58.34100       -3.8913761E-18
   58.50250       -3.8874813E-18
   58.66400       -3.8882038E-18
   58.82550       -3.8930176E-18
   58.98700       -3.8996479E-18
   59.14850       -3.9050394E-18
   59.31000       -3.9066049E-18
   59.47150       -3.9032813E-18
   59.63300       -3.8960186E-18
   59.79450       -3.8875135E-18
   59.95600       -3.8812204E-18
   60.11750       -3.8799593E-18
   60.27900       -3.8846490E-18
   60.44050       -3.8937492E-18
   60.60200       -3.9037569E-18
   60.76350       -3.9105997E-18
   60.92500       -3.9113359E-18
   61.08650       -3.9053897E-18
   61.24800       -3.8948022E-18
   61.40950       -3.8834207E-18
   61.57100       -3.8754164E-18
   61.73250       -3.8736943E-18
   61.89400       -3.8787843E-18
   62.05550       -3.8885963E-18
   62.21700       -3.8991598E-18
   62.37850       -3.9061495E-18
   62.54000       -3.9066479E-18
   62.70150       -3.9004333E-18
   62.86300       -3.8901762E-18
   63.02450       -3.8803886E-18
   63.18600       -3.8755463E-18
   63.34750       -3.8782111E-18
   63.50900       -3.8879544E-18
   63.67050       -3.9015148E-18
   63.83200       -3.9140569E-18
   63.99350       -3.9210152E-18
   64.15500       -3.9198311E-18
   64.31650       -3.9109666E-18
   64.47800       -3.8978153E-18
   64.63950       -3.8854787E-18
   64.80100       -3.8788042E-18
   64.96250       -3.8804209E-18
   65.12400       -3.8896315E-18
   65.28550       -3.9026663E-18
   65.44700       -3.9142443E-18
   65.60850       -3.9197484E-18
   65.77000       -3.9170675E-18
   65.93150       -3.9073651E-18
   66.09300       -3.8945342E-18
   66.25450       -3.8836341E-18
   66.41600       -3.8789303E-18
   66.57750       -3.8822510E-18
   66.73900       -3.8922446E-18
   66.90050       -3.9048450E-18
   67.06200       -3.9148440E-18
   67.22350       -3.9180129E-18
   67.38500       -3.9129034E-18
   67.54650       -3.9015045E-18
   67.70800       -3.8884292E-18
   67.86950       -3.8789804E-18
   68.03100       -3.8769538E-18
   68.19250       -3.8831394E-18
   68.35400       -3.8950760E-18
   68.51550       -3.9080814E-18
   68.67700       -3.9170786E-18
   68.83850       -3.9185345E-18
   69.00000       -3.9118198E-18
   69.16150       -3.8994874E-18
   69.32300       -3.8863046E-18
   69.48450       -3.8773434E-18
   69.64600       -3.8758565E-18
   69.80750       -3.8818697E-18
   69.96900       -3.8921594E-18
   70.13050       -3.9016674E-18
   70.29200       -3.9057099E-18
   70.45350       -3.9019776E-18
   70.61500       -3.8914861E-18
   70.77650       -3.8781313E-18
   70.93800       -3.8671178E-18
   71.09950       -3.8629144E-18
   71.26100       -3.8674933E-18
   71.42250       -3.8795011E-18
   71.58400       -3.8947055E-18
   71.74550       -3.9076194E-18
   71.90700       -3.9137240E-18
   72.06850       -3.9113827E-18
   72.23000       -3.9025612E-18
   72.39150       -3.8919811E-18
   72.55300       -3.8850477E-18
   72.71450       -3.8854985E-18
   72.87600       -3.8938171E-18
   73.03750       -3.9070656E-18
   73.19900       -3.9201355E-18
   73.36050       -3.9278394E-18
   73.52200       -3.9270131E-18
   73.68350       -3.9178173E-18
   73.84500       -3.9037606E-18
   74.00650       -3.8903797E-18
   74.16800       -3.8830153E-18
   74.32950       -3.8845729E-18
   74.49100       -3.8942203E-18
   74.65250       -3.9076641E-18
   74.81400       -3.9189522E-18
   74.97550       -3.9230025E-18
   75.13700       -3.9177549E-18
   75.29850       -3.9049964E-18
   75.46000       -3.8895819E-18
   75.62150       -3.8774344E-18
   75.78300       -3.8731740E-18
   75.94450       -3.8782930E-18
   76.10600       -3.8905468E-18
   76.26750       -3.9047880E-18
   76.42900       -3.9149722E-18
   76.59050       -3.9165881E-18
   76.75200       -3.9085401E-18
   76.91350       -3.8936583E-18
   77.07500       -3.8775568E-18
   77.23650       -3.8663162E-18
   77.39800       -3.8639980E-18
   77.55950       -3.8710667E-18
   77.72100       -3.8843343E-18
   77.88250       -3.8983649E-18
   78.04400       -3.9076794E-18
   78.20550       -3.9088718E-18
   78.36700       -3.9018660E-18
   78.52850       -3.8898818E-18
   78.69000       -3.8781403E-18
   78.85150       -3.8717822E-18
   79.01300       -3.8737861E-18
   79.17450       -3.8837453E-18
   79.33600       -3.8980423E-18
   79.49750       -3.9113703E-18
   79.65900       -3.9189369E-18
   79.82050       -3.9183798E-18
   79.98200       -3.9106064E-18
   80.14350       -3.8992703E-18
   80.30500       -3.8892246E-18
   80.46650       -3.8846176E-18
   80.62800       -3.8873626E-18
   80.78950       -3.8964947E-18
   80.95100       -3.9085984E-18
   81.11250       -3.9191367E-18
   81.27400       -3.9242102E-18
   81.43550       -3.9220599E-18
   81.59700       -3.9137112E-18
   81.75850       -3.9024686E-18
   81.92000       -3.8924919E-18
   82.08150       -3.8870950E-18
   82.24300       -3.8875078E-18
   82.40450       -3.8925858E-18
   82.56600       -3.8994605E-18
   82.72750       -3.9047743E-18
   82.88900       -3.9059675E-18
   83.05050       -3.9021646E-18
   83.21200       -3.8944180E-18
   83.37350       -3.8852462E-18
   83.53500       -3.8776536E-18
   83.69650       -3.8739771E-18
   83.85800       -3.8750190E-18
   84.01950       -3.8798361E-18
   84.18100       -3.8862628E-18
   84.34250       -3.8919075E-18
   84.50400       -3.8951149E-18
   84.66550       -3.8954814E-18
   84.82700       -3.8937604E-18
   84.98850       -3.8913310E-18
   85.15000       -3.8895463E-18
   85.31150       -3.8892428E-18
   85.47300       -3.8905257E-18
   85.63450       -3.8928480E-18
   85.79600       -3.8953019E-18
   85.95750       -3.8970381E-18
   86.11900       -3.8976378E-18
   86.28050       -3.8972739E-18
   86.44200       -3.8965633E-18
   86.60350       -3.8961890E-18
   86.76500       -3.8965232E-18
   86.92650       -3.8974807E-18
   87.08800       -3.8986875E-18
   87.24950       -3.8998038E-18
   87.41100       -3.9007522E-18
   87.57250       -3.9016976E-18
   87.73400       -3.9028218E-18
   87.89550       -3.9040869E-18
   88.05700       -3.9051548E-18
   88.21850       -3.9055138E-18
   88.38000       -3.9047185E-18
   88.54150       -3.9026274E-18
   88.70300       -3.8995428E-18
   88.86450       -3.8962039E-18
   89.02600       -3.8936103E-18
   89.18750       -3.8926627E-18
   89.34900       -3.8937344E-18
   89.51050       -3.8963561E-18
   89.67200       -3.8992657E-18
   89.83350       -3.9008680E-18
   89.99500       -3.8999634E-18
   90.15650       -3.8963582E-18
   90.31800       -3.8910311E-18
   90.47950       -3.8857392E-18
   90.64100       -3.8822634E-18
   90.80250       -3.8816501E-18
   90.96400       -3.8837921E-18
   91.12550       -3.8874854E-18
   91.28700       -3.8909265E-18
   91.44850       -3.8924303E-18
   91.61000       -3.8911391E-18
   91.77150       -3.8874250E-18
   91.93300       -3.8828119E-18
   92.09450       -3.8793728E-18
   92.25600       -3.8788257E-18
   92.41750       -3.8817225E-18
   92.57900       -3.8871426E-18
   92.74050       -3.8930739E-18
   92.90200       -3.8973020E-18
   93.06350       -3.8983926E-18
   93.22500       -3.8962870E-18
   93.38650       -3.8922793E-18
   93.54800       -3.8884148E-18
   93.70950       -3.8866049E-18
   93.87100       -3.8878084E-18
   94.03250       -3.8916048E-18
   94.19400       -3.8963143E-18
   94.35550       -3.8996652E-18
   94.51700       -3.8997715E-18
   94.67850       -3.8960298E-18
   94.84000       -3.8895162E-18
   95.00150       -3.8826460E-18
   95.16300       -3.8781929E-18
   95.32450       -3.8781019E-18
   95.48600       -3.8826266E-18
   95.64750       -3.8901895E-18
   95.80900       -3.8980059E-18
   95.97050       -3.9031965E-18
   96.13200       -3.9039323E-18
   96.29350       -3.9001818E-18
   96.45500       -3.8937732E-18
   96.61650       -3.8877307E-18
   96.77800       -3.8850837E-18
   96.93950       -3.8875917E-18
   97.10100       -3.8949061E-18
   97.26250       -3.9045861E-18
   97.42400       -3.9130300E-18
   97.58550       -3.9169703E-18
   97.74700       -3.9148783E-18
   97.90850       -3.9076471E-18
   98.07000       -3.8982561E-18
   98.23150       -3.8905679E-18
   98.39300       -3.8877588E-18
   98.55450       -3.8910162E-18
   98.71600       -3.8990006E-18
   98.87750       -3.9082911E-18
   99.03900       -3.9146868E-18
   99.20050       -3.9149048E-18
   99.36200       -3.9080181E-18
   99.52350       -3.8959926E-18
   99.68500       -3.8830220E-18
   99.84650       -3.8738601E-18
   100.0080       -3.8718401E-18
   100.1695       -3.8774480E-18
   100.3310       -3.8880893E-18
   100.4925       -3.8991288E-18
   100.6540       -3.9057603E-18
   100.8155       -3.9049240E-18
   100.9770       -3.8965319E-18
   101.1385       -3.8835431E-18
   101.3000       -3.8708641E-18
   101.4615       -3.8634666E-18
   101.6230       -3.8644108E-18
   101.7845       -3.8735553E-18
   101.9460       -3.8875305E-18
   102.1075       -3.9010458E-18
   102.2690       -3.9090260E-18
   102.4305       -3.9086786E-18
   102.5920       -3.9005917E-18
   102.7535       -3.8884251E-18
   102.9150       -3.8773645E-18
   103.0765       -3.8720337E-18
   103.2380       -3.8747071E-18
   103.3995       -3.8844848E-18
   103.5610       -3.8976903E-18
   103.7225       -3.9093151E-18
   103.8840       -3.9149735E-18
   104.0455       -3.9126272E-18
   104.2070       -3.9034103E-18
   104.3685       -3.8911668E-18
   104.5300       -3.8808684E-18
   104.6915       -3.8765625E-18
   104.8530       -3.8797327E-18
   105.0145       -3.8887659E-18
   105.1760       -3.8997231E-18
   105.3375       -3.9080049E-18
   105.4990       -3.9102006E-18
   105.6605       -3.9053848E-18
   105.8220       -3.8954024E-18
   105.9835       -3.8841056E-18
   106.1450       -3.8758313E-18
   106.3065       -3.8736992E-18
   106.4680       -3.8783703E-18
   106.6295       -3.8877795E-18
   106.7910       -3.8979861E-18
   106.9525       -3.9048107E-18
   107.1140       -3.9055676E-18
   107.2755       -3.9001363E-18
   107.4370       -3.8909219E-18
   107.5985       -3.8817775E-18
   107.7600       -3.8763995E-18
   107.9215       -3.8768731E-18
   108.0830       -3.8829322E-18
   108.2445       -3.8921635E-18
   108.4060       -3.9010289E-18
   108.5675       -3.9062951E-18
   108.7290       -3.9063166E-18
   108.8905       -3.9016637E-18
   109.0520       -3.8948163E-18
   109.2135       -3.8890380E-18
   109.3750       -3.8869184E-18
   109.5365       -3.8892457E-18
   109.6980       -3.8947249E-18
   109.8595       -3.9006405E-18
   110.0210       -3.9041167E-18
   110.1825       -3.9033975E-18
   110.3440       -3.8985734E-18
   110.5055       -3.8915047E-18
   110.6670       -3.8850064E-18
   110.8285       -3.8816588E-18
   110.9900       -3.8827196E-18
   111.1515       -3.8875764E-18
   111.3130       -3.8939838E-18
   111.4745       -3.8990085E-18
   111.6360       -3.9003030E-18
   111.7975       -3.8971366E-18
   111.9590       -3.8907098E-18
   112.1205       -3.8836039E-18
   112.2820       -3.8786214E-18
   112.4435       -3.8775770E-18
   112.6050       -3.8805611E-18
   112.7665       -3.8859725E-18
   112.9280       -3.8912445E-18
   113.0895       -3.8939292E-18
   113.2510       -3.8926979E-18
   113.4125       -3.8878742E-18
   113.5740       -3.8813097E-18
   113.7355       -3.8756286E-18
   113.8970       -3.8731446E-18
   114.0585       -3.8748866E-18
   114.2200       -3.8801715E-18
   114.3815       -3.8869271E-18
   114.5430       -3.8926144E-18
   114.7045       -3.8953126E-18
   114.8660       -3.8944606E-18
   115.0275       -3.8909658E-18
   115.1890       -3.8866938E-18
   115.3505       -3.8836237E-18
   115.5120       -3.8830542E-18
   115.6735       -3.8851462E-18
   115.8350       -3.8889280E-18
   115.9965       -3.8927364E-18
   116.1580       -3.8949156E-18
   116.3195       -3.8945214E-18
   116.4810       -3.8917318E-18
   116.6425       -3.8877696E-18
   116.8040       -3.8843521E-18
   116.9655       -3.8829334E-18
   117.1270       -3.8841051E-18
   117.2885       -3.8874358E-18
   117.4500       -3.8917760E-18
   117.6115       -3.8958044E-18
   117.7730       -3.8985196E-18
   117.9345       -3.8994919E-18
   118.0960       -3.8988563E-18
   118.2575       -3.8971457E-18
   118.4190       -3.8950558E-18
   118.5805       -3.8932112E-18
   118.7420       -3.8919692E-18