  -27.90000        1.0333426E-17
  -27.73850        1.0351985E-17
  -27.57700        1.0383178E-17
  -27.41550        1.0417737E-17
  -27.25400        1.0446406E-17
  -27.09250        1.0463271E-17
  -26.93100        1.0467789E-17
  -26.76950        1.0464775E-17
  -26.60800        1.0462352E-17
  -26.44650        1.0468664E-17
  -26.28500        1.0488613E-17
  -26.12350        1.0521882E-17
  -25.96200        1.0562971E-17
  -25.80050        1.0603216E-17
  -25.63900        1.0634016E-17
  -25.47750        1.0650023E-17
  -25.31600        1.0651133E-17
  -25.15450        1.0642520E-17
  -24.99300        1.0632727E-17
  -24.83150        1.0630508E-17
  -24.67000        1.0641605E-17
  -24.50850        1.0666662E-17
  -24.34700        1.0701054E-17
  -24.18550        1.0736699E-17
  -24.02400        1.0765144E-17
  -23.86250        1.0780744E-17
  -23.70100        1.0782751E-17
  -23.53950        1.0775505E-17
  -23.37800        1.0766738E-17
  -23.21650        1.0764639E-17
  -23.05500        1.0774771E-17
  -22.89350        1.0798011E-17
  -22.73200        1.0830229E-17
  -22.57050        1.0863856E-17
  -22.40900        1.0890743E-17
  -22.24750        1.0905246E-17
  -22.08600        1.0906384E-17
  -21.92450        1.0898196E-17
  -21.76300        1.0888188E-17
  -21.60150        1.0884442E-17
  -21.44000        1.0892538E-17
  -21.27850        1.0913445E-17
  -21.11700        1.0943190E-17
  -20.95550        1.0974383E-17
  -20.79400        1.0999011E-17
  -20.63250        1.1011444E-17
  -20.47100        1.1010560E-17
  -20.30950        1.1000177E-17
  -20.14800        1.0987621E-17
  -19.98650        1.0980945E-17
  -19.82500        1.0985844E-17
  -19.66350        1.1003485E-17
  -19.50200        1.1030090E-17
  -19.34050        1.1058461E-17
  -19.17900        1.1080814E-17
  -19.01750        1.1091801E-17
  -18.85600        1.1090556E-17
  -18.69450        1.1080995E-17
  -18.53300        1.1070301E-17
  -18.37150        1.1066174E-17
  -18.21000        1.1073851E-17
  -18.04850        1.1094030E-17
  -17.88700        1.1122484E-17
  -17.72550        1.1151581E-17
  -17.56400        1.1173164E-17
  -17.40250        1.1181700E-17
  -17.24100        1.1176431E-17
  -17.07950        1.1161680E-17
  -16.91800        1.1145180E-17
  -16.75650        1.1135122E-17
  -16.59500        1.1137084E-17
  -16.43350        1.1151995E-17
  -16.27200        1.1175860E-17
  -16.11050        1.1201310E-17
  -15.94900        1.1220404E-17
  -15.78750        1.1227678E-17
  -15.62600        1.1222295E-17
  -15.46450        1.1208440E-17
  -15.30300        1.1193733E-17
  -15.14150        1.1186230E-17
  -14.98000        1.1191193E-17
  -14.81850        1.1208956E-17
  -14.65700        1.1234747E-17
  -14.49550        1.1260520E-17
  -14.33400        1.1278025E-17
  -14.17250        1.1281941E-17
  -14.01100        1.1271894E-17
  -13.84950        1.1252680E-17
  -13.68800        1.1232592E-17
  -13.52650        1.1220442E-17
  -13.36500        1.1222283E-17
  -13.20350        1.1239104E-17
  -13.04200        1.1266393E-17
  -12.88050        1.1295859E-17
  -12.71900        1.1318668E-17
  -12.55750        1.1328899E-17
  -12.39600        1.1325821E-17
  -12.23450        1.1314091E-17
  -12.07300        1.1301880E-17
  -11.91150        1.1297687E-17
  -11.75000        1.1307063E-17
  -11.58850        1.1330448E-17
  -11.42700        1.1362830E-17
  -11.26550        1.1395449E-17
  -11.10400        1.1418951E-17
  -10.94250        1.1426911E-17
  -10.78100        1.1418367E-17
  -10.61950        1.1398293E-17
  -10.45800        1.1375746E-17
  -10.29650        1.1360405E-17
  -10.13500        1.1358903E-17
  -9.973500        1.1372407E-17
  -9.812000        1.1396339E-17
  -9.650500        1.1422253E-17
  -9.489000        1.1441073E-17
  -9.327500        1.1446528E-17
  -9.166000        1.1437540E-17
  -9.004500        1.1418733E-17
  -8.843000        1.1398785E-17
  -8.681500        1.1387151E-17
  -8.520000        1.1390375E-17
  -8.358500        1.1409437E-17
  -8.197000        1.1439311E-17
  -8.035500        1.1470909E-17
  -7.874000        1.1494626E-17
  -7.712500        1.1503996E-17
  -7.551000        1.1498049E-17
  -7.389500        1.1481557E-17
  -7.228000        1.1463178E-17
  -7.066500        1.1452241E-17
  -6.905000        1.1455293E-17
  -6.743500        1.1473617E-17
  -6.582000        1.1502637E-17
  -6.420500        1.1533565E-17
  -6.259000        1.1556747E-17
  -6.097500        1.1565450E-17
  -5.936000        1.1558519E-17
  -5.774500        1.1540786E-17
  -5.613000        1.1521096E-17
  -5.451500        1.1508840E-17
  -5.290000        1.1510424E-17
  -5.128500        1.1527003E-17
  -4.967000        1.1554204E-17
  -4.805500        1.1583793E-17
  -4.644000        1.1606716E-17
  -4.482500        1.1616446E-17
  -4.321000        1.1611511E-17
  -4.159500        1.1596183E-17
  -3.998000        1.1578934E-17
  -3.836500        1.1569142E-17
  -3.675000        1.1573375E-17
  -3.513500        1.1592801E-17
  -3.352000        1.1622814E-17
  -3.190500        1.1654933E-17
  -3.029000        1.1680105E-17
  -2.867500        1.1692032E-17
  -2.706000        1.1689347E-17
  -2.544500        1.1675982E-17
  -2.383000        1.1659651E-17
  -2.221500        1.1648992E-17
  -2.060000        1.1650280E-17
  -1.898500        1.1664909E-17
  -1.737000        1.1688715E-17
  -1.575500        1.1713541E-17
  -1.414000        1.1730531E-17
  -1.252500        1.1733764E-17
  -1.091000        1.1722675E-17
 -0.9295000        1.1702264E-17
 -0.7680000        1.1681124E-17
 -0.6065000        1.1668186E-17
 -0.4450000        1.1669470E-17
 -0.2835000        1.1685977E-17
 -0.1220000        1.1713349E-17
  3.9500002E-02    1.1743410E-17
  0.2010000        1.1767118E-17
  0.3625000        1.1777949E-17
  0.5240000        1.1774440E-17
  0.6855000        1.1760793E-17
  0.8470000        1.1745152E-17
   1.008500        1.1736249E-17
   1.170000        1.1739844E-17
   1.331500        1.1756482E-17
   1.493000        1.1781445E-17
   1.654500        1.1806732E-17
   1.816000        1.1824186E-17
   1.977500        1.1828555E-17
   2.139000        1.1819457E-17
   2.300500        1.1801617E-17
   2.462000        1.1783261E-17
   2.623500        1.1773114E-17
   2.785000        1.1777038E-17
   2.946500        1.1795634E-17
   3.108000        1.1823907E-17
   3.269500        1.1853220E-17
   3.431000        1.1874741E-17
   3.592500        1.1882889E-17
   3.754000        1.1877344E-17
   3.915500        1.1862927E-17
   4.077000        1.1847582E-17
   4.238500        1.1839338E-17
   4.400000        1.1843358E-17
   4.561500        1.1860041E-17
   4.723000        1.1884804E-17
   4.884500        1.1909727E-17
   5.046000        1.1926577E-17
   5.207500        1.1930140E-17
   5.369000        1.1920463E-17
   5.530500        1.1902959E-17
   5.692000        1.1886280E-17
   5.853500        1.1878840E-17
   6.015000        1.1885537E-17
   6.176500        1.1905958E-17
   6.338000        1.1934650E-17
   6.499500        1.1963201E-17
   6.661000        1.1983259E-17
   6.822500        1.1989500E-17
   6.984000        1.1981559E-17
   7.145500        1.1964252E-17
   7.307000        1.1945864E-17
   7.468500        1.1935007E-17
   7.630000        1.1937202E-17
   7.791500        1.1952659E-17
   7.953000        1.1976238E-17
   8.114500        1.1999627E-17
   8.276000        1.2014742E-17
   8.437500        1.2016884E-17
   8.599000        1.2006425E-17
   8.760500        1.1988543E-17
   8.922000        1.1971239E-17
   9.083500        1.1962412E-17
   9.245000        1.1966940E-17
   9.406500        1.1984759E-17
   9.568000        1.2010698E-17
   9.729500        1.2036299E-17
   9.891000        1.2053086E-17
   10.05250        1.2055985E-17
   10.21400        1.2045420E-17
   10.37550        1.2027147E-17
   10.53700        1.2009925E-17
   10.69850        1.2002076E-17
   10.86000        1.2008389E-17
   11.02150        1.2028483E-17
   11.18300        1.2057086E-17
   11.34450        1.2085991E-17
   11.50600        1.2107007E-17
   11.66750        1.2114939E-17
   11.82900        1.2109596E-17
   11.99050        1.2095949E-17
   12.15200        1.2082248E-17
   12.31350        1.2076685E-17
   12.47500        1.2084010E-17
   12.63650        1.2103560E-17
   12.79800        1.2129561E-17
   12.95950        1.2153507E-17
   13.12100        1.2167498E-17
   13.28250        1.2167178E-17
   13.44400        1.2153261E-17
   13.60550        1.2131239E-17
   13.76700        1.2109477E-17
   13.92850        1.2096297E-17
   14.09000        1.2096970E-17
   14.25150        1.2111704E-17
   14.41300        1.2135485E-17
   14.57450        1.2160017E-17
   14.73600        1.2177077E-17
   14.89750        1.2181843E-17
   15.05900        1.2174757E-17
   15.22050        1.2161155E-17
   15.38200        1.2148947E-17
   15.54350        1.2145454E-17
   15.70500        1.2154653E-17
   15.86650        1.2175758E-17
   16.02800        1.2203495E-17
   16.18950        1.2229940E-17
   16.35100        1.2247354E-17
   16.51250        1.2251125E-17
   16.67400        1.2241696E-17
   16.83550        1.2224575E-17
   16.99700        1.2208246E-17
   17.15850        1.2200769E-17
   17.32000        1.2206528E-17
   17.48150        1.2224587E-17
   17.64300        1.2249265E-17
   17.80450        1.2272564E-17
   17.96600        1.2287304E-17
   18.12750        1.2289761E-17
   18.28900        1.2280962E-17
   18.45050        1.2266284E-17
   18.61200        1.2253521E-17
   18.77350        1.2249975E-17
   18.93500        1.2259558E-17
   19.09650        1.2281065E-17
   19.25800        1.2308472E-17
   19.41950        1.2333294E-17
   19.58100        1.2348064E-17
   19.74250        1.2349345E-17
   19.90400        1.2338984E-17
   20.06550        1.2323138E-17
   20.22700        1.2309683E-17
   20.38850        1.2305155E-17
   20.55000        1.2312397E-17
   20.71150        1.2329643E-17
   20.87300        1.2351226E-17
   21.03450        1.2369706E-17
   21.19600        1.2378729E-17
   21.35750        1.2375609E-17
   21.51900        1.2362557E-17
   21.68050        1.2345873E-17
   21.84200        1.2333336E-17
   22.00350        1.2330920E-17
   22.16500        1.2340357E-17
   22.32650        1.2358582E-17
   22.48800        1.2379201E-17
   22.64950        1.2395147E-17
   22.81100        1.2401390E-17
   22.97250        1.2396723E-17
   23.13400        1.2384125E-17
   23.29550        1.2369673E-17
   23.45700        1.2360337E-17
   23.61850        1.2361344E-17
   23.78000        1.2374070E-17
   23.94150        1.2395392E-17
   24.10300        1.2418917E-17
   24.26450        1.2437642E-17
   24.42600        1.2446827E-17
   24.58750        1.2445807E-17
   24.74900        1.2437967E-17
   24.91050        1.2429109E-17
   25.07200        1.2425046E-17
   25.23350        1.2429445E-17
   25.39500        1.2442576E-17
   25.55650        1.2461270E-17
   25.71800        1.2480032E-17
   25.87950        1.2493018E-17
   26.04100        1.2496276E-17
   26.20250        1.2489413E-17
   26.36400        1.2475885E-17
   26.52550        1.2461668E-17
   26.68700        1.2452840E-17
   26.84850        1.2453191E-17
   27.01000        1.2462919E-17
   27.17150        1.2478876E-17
   27.33300        1.2496043E-17
   27.49450        1.2509448E-17
   27.65600        1.2515866E-17
   27.81750        1.2514817E-17
   27.97900        1.2508694E-17
   28.14050        1.2501951E-17
   28.30200        1.2499501E-17
   28.46350        1.2504761E-17
   28.62500        1.2518152E-17
   28.78650        1.2536796E-17
   28.94800        1.2555664E-17
   29.10950        1.2569667E-17
   29.27100        1.2575691E-17
   29.43250        1.2573681E-17
   29.59400        1.2566456E-17
   29.75550        1.2558523E-17
   29.91700        1.2554490E-17
   30.07850        1.2557547E-17
   30.24000        1.2568396E-17
   30.40150        1.2584881E-17
   30.56300        1.2602553E-17
   30.72450        1.2616184E-17
   30.88600        1.2621776E-17
   31.04750        1.2618218E-17
   31.20900        1.2607773E-17
   31.37050        1.2595103E-17
   31.53200        1.2585326E-17
   31.69350        1.2582040E-17
   31.85500        1.2586165E-17
   32.01650        1.2595908E-17
   32.17800        1.2607643E-17
   32.33950        1.2617281E-17
   32.50100        1.2621717E-17
   32.66250        1.2619998E-17
   32.82400        1.2613844E-17
   32.98550        1.2607190E-17
   33.14700        1.2604711E-17
   33.30850        1.2609849E-17
   33.47000        1.2623218E-17
   33.63150        1.2642223E-17
   33.79300        1.2662096E-17
   33.95450        1.2677827E-17
   34.11600        1.2686039E-17
   34.27750        1.2686055E-17
   34.43900        1.2679887E-17
   34.60050        1.2671352E-17
   34.76200        1.2664711E-17
   34.92350        1.2663224E-17
   35.08500        1.2667993E-17
   35.24650        1.2677510E-17
   35.40800        1.2688205E-17
   35.56950        1.2695947E-17
   35.73100        1.2697906E-17
   35.89250        1.2693890E-17
   36.05400        1.2686453E-17
   36.21550        1.2679746E-17
   36.37700        1.2677713E-17
   36.53850        1.2682520E-17
   36.70000        1.2693837E-17
   36.86150        1.2709097E-17
   37.02300        1.2724469E-17
   37.18450        1.2736155E-17
   37.34600        1.2741678E-17
   37.50750        1.2740786E-17
   37.66900        1.2735634E-17
   37.83050        1.2730020E-17
   37.99200        1.2727852E-17
   38.15350        1.2731487E-17
   38.31500        1.2740762E-17
   38.47650        1.2753203E-17
   38.63800        1.2765268E-17
   38.79950        1.2773943E-17
   38.96100        1.2777917E-17
   39.12250        1.2777915E-17
   39.28400        1.2776234E-17
   39.44550        1.2775797E-17
   39.60700        1.2779054E-17
   39.76850        1.2787016E-17
   39.93000        1.2798728E-17
   40.09150        1.2811451E-17
   40.25300        1.2821668E-17
   40.41450        1.2826582E-17
   40.57600        1.2825429E-17
   40.73750        1.2819878E-17
   40.89900        1.2813282E-17
   41.06050        1.2809174E-17
   41.22200        1.2809772E-17
   41.38350        1.2815216E-17
   41.54500        1.2823719E-17
   41.70650        1.2832401E-17
   41.86800        1.2838409E-17
   42.02950        1.2839945E-17
   42.19100        1.2836965E-17
   42.35250        1.2831298E-17
   42.51400        1.2826055E-17
   42.67550        1.2824359E-17
   42.83700        1.2827923E-17
   42.99850        1.2836153E-17
   43.16000        1.2846353E-17
   43.32150        1.2854965E-17
   43.48300        1.2859216E-17
   43.64450        1.2858295E-17
   43.80600        1.2853567E-17
   43.96750        1.2847841E-17
   44.12900        1.2844203E-17
   44.29050        1.2844892E-17
   44.45200        1.2850561E-17
   44.61350        1.2860056E-17
   44.77500        1.2870780E-17
   44.93650        1.2879635E-17
   45.09800        1.2884307E-17
   45.25950        1.2884367E-17
   45.42100        1.2881551E-17
   45.58250        1.2878982E-17
   45.74400        1.2879628E-17
   45.90550        1.2884857E-17
   46.06700        1.2893824E-17
   46.22850        1.2903971E-17
   46.39000        1.2912246E-17
   46.55150        1.2916382E-17
   46.71300        1.2915724E-17
   46.87450        1.2911384E-17
   47.03600        1.2905842E-17
   47.19750        1.2902103E-17
   47.35900        1.2902610E-17
   47.52050        1.2908219E-17
   47.68200        1.2917720E-17
   47.84350        1.2928258E-17
   48.00500        1.2936619E-17
   48.16650        1.2940786E-17
   48.32800        1.2940912E-17
   48.48950        1.2939178E-17
   48.65100        1.2938624E-17
   48.81250        1.2941657E-17
   48.97400        1.2948994E-17
   49.13550        1.2959463E-17
   49.29700        1.2970587E-17
   49.45850        1.2979573E-17
   49.62000        1.2984351E-17
   49.78150        1.2984369E-17
   49.94300        1.2980909E-17
   50.10450        1.2976684E-17
   50.26600        1.2974746E-17
   50.42750        1.2977058E-17
   50.58900        1.2983452E-17
   50.75050        1.2991617E-17
   50.91200        1.2998233E-17
   51.07350        1.3000696E-17
   51.23500        1.2998485E-17
   51.39650        1.2993471E-17
   51.55800        1.2989051E-17
   51.71950        1.2988632E-17
   51.88100        1.2994155E-17
   52.04250        1.3005258E-17
   52.20400        1.3019296E-17
   52.36550        1.3032216E-17
   52.52700        1.3040048E-17
   52.68850        1.3040538E-17
   52.85000        1.3034294E-17
   53.01150        1.3024801E-17
   53.17300        1.3017079E-17
   53.33450        1.3015492E-17
   53.49600        1.3021701E-17
   53.65750        1.3033833E-17
   53.81900        1.3047293E-17
   53.98050        1.3056822E-17
   54.14200        1.3058819E-17
   54.30350        1.3052889E-17
   54.46500        1.3042045E-17
   54.62650        1.3031546E-17
   54.78800        1.3026845E-17
   54.94950        1.3031356E-17
   55.11100        1.3044896E-17
   55.27250        1.3063458E-17
   55.43400        1.3080631E-17
   55.59550        1.3090222E-17
   55.75700        1.3089012E-17
   55.91850        1.3078342E-17
   56.08000        1.3063702E-17
   56.24150        1.3052438E-17
   56.40300        1.3050617E-17
   56.56450        1.3060477E-17
   56.72600        1.3079499E-17
   56.88750        1.3101418E-17
   57.04900        1.3118708E-17
   57.21050        1.3125548E-17
   57.37200        1.3120201E-17
   57.53350        1.3105877E-17
   57.69500        1.3089625E-17
   57.85650        1.3079560E-17
   58.01800        1.3081426E-17
   58.17950        1.3096008E-17
   58.34100        1.3118616E-17
   58.50250        1.3140979E-17
   58.66400        1.3154745E-17
   58.82550        1.3154994E-17
   58.98700        1.3142250E-17
   59.14850        1.3122210E-17
   59.31000        1.3103436E-17
   59.47150        1.3093996E-17
   59.63300        1.3098376E-17
   59.79450        1.3115743E-17
   59.95600        1.3140236E-17
   60.11750        1.3163249E-17
   60.27900        1.3176901E-17
   60.44050        1.3177350E-17
   60.60200        1.3166462E-17
   60.76350        1.3151006E-17
   60.92500        1.3139671E-17
   61.08650        1.3139245E-17
   61.24800        1.3151698E-17
   61.40950        1.3173425E-17
   61.57100        1.3196849E-17
   61.73250        1.3213552E-17
   61.89400        1.3217613E-17
   62.05550        1.3207889E-17
   62.21700        1.3188476E-17
   62.37850        1.3167205E-17
   62.54000        1.3152677E-17
   62.70150        1.3150885E-17
   62.86300        1.3162746E-17
   63.02450        1.3183676E-17
   63.18600        1.3205488E-17
   63.34750        1.3219876E-17
   63.50900        1.3221922E-17
   63.67050        1.3212067E-17
   63.83200        1.3195715E-17
   63.99350        1.3180809E-17
   64.15500        1.3174509E-17
   64.31650        1.3180370E-17
   64.47800        1.3197021E-17
   64.63950        1.3218714E-17
   64.80100        1.3237522E-17
   64.96250        1.3246375E-17
   65.12400        1.3241897E-17
   65.28550        1.3225888E-17
   65.44700        1.3204738E-17
   65.60850        1.3186901E-17
   65.77000        1.3179407E-17
   65.93150        1.3184984E-17
   66.09300        1.3201045E-17
   66.25450        1.3220968E-17
   66.41600        1.3236983E-17
   66.57750        1.3243373E-17
   66.73900        1.3238695E-17
   66.90050        1.3226237E-17
   67.06200        1.3212654E-17
   67.22350        1.3205335E-17
   67.38500        1.3209437E-17
   67.54650        1.3225692E-17
   67.70800        1.3249883E-17
   67.86950        1.3274350E-17
   68.03100        1.3291016E-17
   68.19250        1.3294722E-17
   68.35400        1.3285392E-17
   68.51550        1.3268054E-17
   68.67700        1.3250734E-17
   68.83850        1.3241184E-17
   69.00000        1.3243819E-17
   69.16150        1.3258092E-17
   69.32300        1.3278815E-17
   69.48450        1.3298244E-17
   69.64600        1.3309114E-17
   69.80750        1.3307529E-17
   69.96900        1.3294598E-17
   70.13050        1.3276125E-17
   70.29200        1.3260345E-17
   70.45350        1.3254582E-17
   70.61500        1.3262214E-17
   70.77650        1.3281275E-17
   70.93800        1.3305304E-17
   71.09950        1.3326036E-17
   71.26100        1.3336731E-17
   71.42250        1.3334790E-17
   71.58400        1.3322656E-17
   71.74550        1.3306765E-17
   71.90700        1.3294995E-17
   72.06850        1.3293582E-17
   72.23000        1.3304634E-17
   72.39150        1.3325215E-17
   72.55300        1.3348444E-17
   72.71450        1.3366230E-17
   72.87600        1.3372551E-17
   73.03750        1.3365870E-17
   73.19900        1.3349669E-17
   73.36050        1.3330924E-17
   73.52200        1.3317232E-17
   73.68350        1.3313875E-17
   73.84500        1.3321921E-17
   74.00650        1.3338018E-17
   74.16800        1.3355832E-17
   74.32950        1.3368536E-17
   74.49100        1.3371476E-17
   74.65250        1.3364014E-17
   74.81400        1.3349836E-17
   74.97550        1.3335505E-17
   75.13700        1.3327817E-17
   75.29850        1.3331040E-17
   75.46000        1.3345222E-17
   75.62150        1.3366257E-17
   75.78300        1.3387594E-17
   75.94450        1.3402759E-17
   76.10600        1.3407672E-17
   76.26750        1.3401928E-17
   76.42900        1.3388734E-17
   76.59050        1.3373615E-17
   76.75200        1.3362369E-17
   76.91350        1.3358934E-17
   77.07500        1.3363939E-17
   77.23650        1.3374520E-17
   77.39800        1.3385542E-17
   77.55950        1.3391772E-17
   77.72100        1.3390071E-17
   77.88250        1.3380645E-17
   78.04400        1.3366892E-17
   78.20550        1.3354005E-17
   78.36700        1.3346996E-17
   78.52850        1.3348921E-17
   78.69000        1.3359875E-17
   78.85150        1.3377009E-17
   79.01300        1.3395498E-17
   79.17450        1.3410199E-17
   79.33600        1.3417484E-17
   79.49750        1.3416570E-17
   79.65900        1.3409797E-17
   79.82050        1.3401650E-17
   79.98200        1.3396901E-17
   80.14350        1.3398671E-17
   80.30500        1.3407237E-17
   80.46650        1.3420035E-17
   80.62800        1.3432763E-17
   80.78950        1.3441085E-17
   80.95100        1.3442276E-17
   81.11250        1.3436254E-17
   81.27400        1.3425695E-17
   81.43550        1.3415142E-17
   81.59700        1.3409374E-17
   81.75850        1.3411575E-17
   81.92000        1.3421992E-17
   82.08150        1.3437727E-17
   82.24300        1.3453792E-17
   82.40450        1.3465068E-17
   82.56600        1.3468346E-17
   82.72750        1.3463615E-17
   82.88900        1.3454063E-17
   83.05050        1.3444831E-17
   83.21200        1.3441018E-17
   83.37350        1.3445695E-17
   83.53500        1.3458676E-17
   83.69650        1.3476530E-17
   83.85800        1.3493856E-17
   84.01950        1.3505396E-17
   84.18100        1.3508163E-17
   84.34250        1.3502718E-17
   84.50400        1.3493018E-17
   84.66550        1.3484835E-17
   84.82700        1.3483384E-17
   84.98850        1.3491108E-17
   85.15000        1.3506586E-17
   85.31150        1.3525011E-17
   85.47300        1.3540105E-17
   85.63450        1.3546685E-17
   85.79600        1.3542848E-17
   85.95750        1.3530837E-17
   86.11900        1.3516186E-17
   86.28050        1.3505473E-17
   86.44200        1.3503586E-17
   86.60350        1.3511652E-17
   86.76500        1.3526525E-17
   86.92650        1.3542054E-17
   87.08800        1.3551621E-17
   87.24950        1.3550908E-17
   87.41100        1.3539742E-17
   87.57250        1.3522261E-17
   87.73400        1.3505270E-17
   87.89550        1.3495435E-17
   88.05700        1.3496483E-17
   88.21850        1.3507568E-17
   88.38000        1.3523577E-17
   88.54150        1.3537257E-17
   88.70300        1.3542307E-17
   88.86450        1.3536065E-17
   89.02600        1.3520667E-17
   89.18750        1.3502170E-17
   89.34900        1.3488060E-17
   89.51050        1.3484182E-17
   89.67200        1.3492385E-17
   89.83350        1.3509815E-17
   89.99500        1.3530125E-17
   90.15650        1.3546123E-17
   90.31800        1.3552731E-17
   90.47950        1.3549064E-17
   90.64100        1.3538698E-17
   90.80250        1.3528042E-17
   90.96400        1.3523494E-17
   91.12550        1.3528630E-17
   91.28700        1.3542656E-17
   91.44850        1.3560776E-17
   91.61000        1.3576269E-17
   91.77150        1.3583365E-17
   91.93300        1.3579680E-17
   92.09450        1.3567225E-17
   92.25600        1.3551567E-17
   92.41750        1.3539549E-17
   92.57900        1.3536478E-17
   92.74050        1.3543994E-17
   92.90200        1.3559493E-17
   93.06350        1.3577349E-17
   93.22500        1.3591395E-17
   93.38650        1.3597547E-17
   93.54800        1.3595455E-17
   93.70950        1.3588489E-17
   93.87100        1.3582148E-17
   94.03250        1.3581621E-17
   94.19400        1.3589545E-17
   94.35550        1.3604886E-17
   94.51700        1.3623374E-17
   94.67850        1.3639293E-17
   94.84000        1.3647874E-17
   95.00150        1.3647286E-17
   95.16300        1.3639363E-17
   95.32450        1.3628712E-17
   95.48600        1.3620643E-17
   95.64750        1.3618838E-17
   95.80900        1.3623849E-17
   95.97050        1.3633063E-17
   96.13200        1.3642049E-17
   96.29350        1.3646623E-17
   96.45500        1.3644674E-17
   96.61650        1.3637004E-17
   96.77800        1.3626917E-17
   96.93950        1.3618778E-17
   97.10100        1.3616146E-17
   97.26250        1.3620243E-17
   97.42400        1.3629428E-17
   97.58550        1.3639915E-17
   97.74700        1.3647499E-17
   97.90850        1.3649490E-17
   98.07000        1.3645935E-17
   98.23150        1.3639534E-17
   98.39300        1.3634313E-17
   98.55450        1.3633724E-17
   98.71600        1.3639138E-17
   98.87750        1.3649359E-17
   99.03900        1.3661291E-17
   99.20050        1.3671319E-17
   99.36200        1.3676798E-17
   99.52350        1.3677025E-17
   99.68500        1.3673420E-17
   99.84650        1.3668837E-17
   100.0080        1.3666291E-17
   100.1695        1.3667602E-17
   100.3310        1.3672547E-17
   100.4925        1.3678960E-17
   100.6540        1.3683783E-17
   100.8155        1.3684560E-17
   100.9770        1.3680640E-17
   101.1385        1.3673464E-17
   101.3000        1.3665867E-17
   101.4615        1.3660797E-17
   101.6230        1.3660107E-17
   101.7845        1.3663926E-17
   101.9460        1.3670783E-17
   102.1075        1.3678308E-17
   102.2690        1.3684187E-17
   102.4305        1.3687043E-17
   102.5920        1.3686947E-17
   102.7535        1.3685357E-17
   102.9150        1.3684472E-17
   103.0765        1.3686223E-17
   103.2380        1.3691351E-17
   103.3995        1.3699026E-17
   103.5610        1.3707199E-17
   103.7225        1.3713528E-17
   103.8840        1.3716368E-17
   104.0455        1.3715413E-17
   104.2070        1.3711717E-17
   104.3685        1.3707215E-17
   104.5300        1.3703987E-17
   104.6915        1.3703550E-17
   104.8530        1.3706383E-17
   105.0145        1.3711778E-17
   105.1760        1.3718108E-17
   105.3375        1.3723433E-17
   105.4990        1.3726257E-17
   105.6605        1.3726120E-17
   105.8220        1.3723758E-17
   105.9835        1.3720734E-17
   106.1450        1.3718745E-17
   106.3065        1.3718929E-17
   106.4680        1.3721452E-17
   106.6295        1.3725502E-17
   106.7910        1.3729634E-17
   106.9525        1.3732292E-17
   107.1140        1.3732379E-17
   107.2755        1.3729700E-17
   107.4370        1.3725111E-17
   107.5985        1.3720294E-17
   107.7600        1.3717171E-17
   107.9215        1.3717172E-17
   108.0830        1.3720684E-17
   108.2445        1.3726928E-17
   108.4060        1.3734300E-17
   108.5675        1.3740992E-17
   108.7290        1.3745637E-17
   108.8905        1.3747731E-17
   109.0520        1.3747768E-17
   109.2135        1.3747042E-17
   109.3750        1.3747193E-17
   109.5365        1.3749582E-17
   109.6980        1.3754712E-17
   109.8595        1.3761911E-17
   110.0210        1.3769526E-17
   110.1825        1.3775538E-17
   110.3440        1.3778379E-17
   110.5055        1.3777557E-17
   110.6670        1.3773850E-17
   110.8285        1.3769029E-17
   110.9900        1.3765274E-17
   111.1515        1.3764491E-17
   111.3130        1.3767708E-17
   111.4745        1.3774660E-17
   111.6360        1.3783743E-17
   111.7975        1.3792445E-17
   111.9590        1.3798227E-17
   112.1205        1.3799561E-17
   112.2820        1.3796667E-17
   112.4435        1.3791535E-17
   112.6050        1.3787182E-17
   112.7665        1.3786452E-17
   112.9280        1.3790884E-17
   113.0895        1.3800097E-17
   113.2510        1.3811881E-17
   113.4125        1.3822937E-17
   113.5740        1.3830032E-17
   113.7355        1.3831224E-17
   113.8970        1.3826751E-17
   114.0585        1.3819152E-17
   114.2200        1.3812412E-17
   114.3815        1.3810316E-17
   114.5430        1.3814719E-17
   114.7045        1.3824523E-17
   114.8660        1.3835988E-17
   115.0275        1.3844249E-17
   115.1890        1.3845395E-17
   115.3505        1.3838169E-17
   115.5120        1.3824562E-17
   115.6735        1.3809124E-17
   115.8350        1.3797268E-17
   115.9965        1.3793199E-17
   116.1580        1.3798240E-17
   116.3195        1.3810169E-17
   116.4810        1.3823963E-17
   116.6425        1.3833778E-17
   116.8040        1.3835425E-17
   116.9655        1.3828266E-17
   117.1270        1.3815611E-17
   117.2885        1.3803359E-17
   117.4500        1.3797460E-17
   117.6115        1.3801356E-17
   117.7730        1.3814508E-17
   117.9345        1.3832580E-17
   118.0960        1.3849139E-17
   118.2575        1.3858132E-17
   118.4190        1.3856212E-17
   118.5805        1.3844055E-17
   118.7420        1.3826168E-17