  -27.90000        5.1060737E-19
  -27.73850        4.9359899E-19
  -27.57700        4.7268802E-19
  -27.41550        4.6126341E-19
  -27.25400        4.6062328E-19
  -27.09250        4.5970924E-19
  -26.93100        4.4699734E-19
  -26.76950        4.2262573E-19
  -26.60800        3.9872484E-19
  -26.44650        3.8767099E-19
  -26.28500        3.8994367E-19
  -26.12350        3.9360112E-19
  -25.96200        3.8586776E-19
  -25.80050        3.6541373E-19
  -25.63900        3.4333910E-19
  -25.47750        3.3208714E-19
  -25.31600        3.3331868E-19
  -25.15450        3.3658625E-19
  -24.99300        3.2985717E-19
  -24.83150        3.1132248E-19
  -24.67000        2.9091699E-19
  -24.50850        2.8031639E-19
  -24.34700        2.8149186E-19
  -24.18550        2.8505267E-19
  -24.02400        2.7975098E-19
  -23.86250        2.6355706E-19
  -23.70100        2.4544294E-19
  -23.53950        2.3637679E-19
  -23.37800        2.3861656E-19
  -23.21650        2.4374557E-19
  -23.05500        2.4106770E-19
  -22.89350        2.2785416E-19
  -22.73200        2.1148546E-19
  -22.57050        2.0180573E-19
  -22.40900        2.0156988E-19
  -22.24750        2.0431082E-19
  -22.08600        2.0130062E-19
  -21.92450        1.9033462E-19
  -21.76300        1.7765823E-19
  -21.60150        1.7148787E-19
  -21.44000        1.7385270E-19
  -21.27850        1.7877062E-19
  -21.11700        1.7821689E-19
  -20.95550        1.6970639E-19
  -20.79400        1.5814480E-19
  -20.63250        1.5061457E-19
  -20.47100        1.4963666E-19
  -20.30950        1.5146297E-19
  -20.14800        1.5052792E-19
  -19.98650        1.4511540E-19
  -19.82500        1.3857374E-19
  -19.66350        1.3531017E-19
  -19.50200        1.3601862E-19
  -19.34050        1.3697072E-19
  -19.17900        1.3376199E-19
  -19.01750        1.2545633E-19
  -18.85600        1.1509267E-19
  -18.69450        1.0650073E-19
  -18.53300        1.0100394E-19
  -18.37150        9.7186445E-20
  -18.21000        9.3363520E-20
  -18.04850        8.9673054E-20
  -17.88700        8.7561579E-20
  -17.72550        8.7613723E-20
  -17.56400        8.8456549E-20
  -17.40250        8.8046810E-20
  -17.24100        8.5750221E-20
  -17.07950        8.2720575E-20
  -16.91800        8.0119086E-20
  -16.75650        7.7345607E-20
  -16.59500        7.2545271E-20
  -16.43350        6.4991484E-20
  -16.27200        5.6551327E-20
  -16.11050        5.0202422E-20
  -15.94900        4.6878490E-20
  -15.78750        4.4161877E-20
  -15.62600        3.8685476E-20
  -15.46450        3.0071140E-20
  -15.30300        2.2114847E-20
  -15.14150        1.9433324E-20
  -14.98000        2.2591471E-20
  -14.81850        2.6831330E-20
  -14.65700        2.6210903E-20
  -14.49550        1.9353950E-20
  -14.33400        1.0890294E-20
  -14.17250        6.7181008E-21
  -14.01100        7.6045565E-21
  -13.84950        7.8021339E-21
  -13.68800        6.1338739E-22
  -13.52650       -1.4375079E-20
  -13.36500       -2.9892941E-20
  -13.20350       -3.7441351E-20
  -13.04200       -3.5585158E-20
  -12.88050       -3.1692171E-20
  -12.71900       -3.4886707E-20
  -12.55750       -4.6878833E-20
  -12.39600       -5.9910940E-20
  -12.23450       -6.4297764E-20
  -12.07300       -5.8334509E-20
  -11.91150       -5.0539766E-20
  -11.75000       -5.1515500E-20
  -11.58850       -6.3211882E-20
  -11.42700       -7.6432897E-20
  -11.26550       -7.9552267E-20
  -11.10400       -7.0137568E-20
  -10.94250       -5.7850362E-20
  -10.78100       -5.5330085E-20
  -10.61950       -6.5792880E-20
  -10.45800       -7.9728314E-20
  -10.29650       -8.4308238E-20
  -10.13500       -7.6389600E-20
  -9.973500       -6.6071530E-20
  -9.812000       -6.6890949E-20
  -9.650500       -8.2144024E-20
  -9.489000       -1.0102862E-19
  -9.327500       -1.0883173E-19
  -9.166000       -1.0136490E-19
  -9.004500       -8.9323771E-20
  -8.843000       -8.7991977E-20
  -8.681500       -1.0227095E-19
  -8.520000       -1.2188374E-19
  -8.358500       -1.3165708E-19
  -8.197000       -1.2676393E-19
  -8.035500       -1.1768566E-19
  -7.874000       -1.1977257E-19
  -7.712500       -1.3765674E-19
  -7.551000       -1.6011512E-19
  -7.389500       -1.7074299E-19
  -7.228000       -1.6402481E-19
  -7.066500       -1.5087770E-19
  -6.905000       -1.4803350E-19
  -6.743500       -1.6166873E-19
  -6.582000       -1.8146302E-19
  -6.420500       -1.9096134E-19
  -6.259000       -1.8392630E-19
  -6.097500       -1.7044966E-19
  -5.936000       -1.6681538E-19
  -5.774500       -1.7928403E-19
  -5.613000       -1.9798427E-19
  -5.451500       -2.0694699E-19
  -5.290000       -2.0020241E-19
  -5.128500       -1.8783272E-19
  -4.967000       -1.8595399E-19
  -4.805500       -2.0062190E-19
  -4.644000       -2.2163508E-19
  -4.482500       -2.3234529E-19
  -4.321000       -2.2568723E-19
  -4.159500       -2.1066127E-19
  -3.998000       -2.0314968E-19
  -3.836500       -2.1045192E-19
  -3.675000       -2.2487050E-19
  -3.513500       -2.3234441E-19
  -3.352000       -2.2706702E-19
  -3.190500       -2.1736466E-19
  -3.029000       -2.1713667E-19
  -2.867500       -2.3167871E-19
  -2.706000       -2.5211808E-19
  -2.544500       -2.6386441E-19
  -2.383000       -2.6053312E-19
  -2.221500       -2.4962077E-19
  -2.060000       -2.4470818E-19
  -1.898500       -2.5227391E-19
  -1.737000       -2.6613262E-19
  -1.575500       -2.7445106E-19
  -1.414000       -2.7177355E-19
  -1.252500       -2.6398177E-19
  -1.091000       -2.6171351E-19
 -0.9295000       -2.6939750E-19
 -0.7680000       -2.8102983E-19
 -0.6065000       -2.8658934E-19
 -0.4450000       -2.8225349E-19
 -0.2835000       -2.7413081E-19
 -0.1220000       -2.7214196E-19
  3.9500002E-02   -2.8050209E-19
  0.2010000       -2.9420620E-19
  0.3625000       -3.0445251E-19
  0.5240000       -3.0706071E-19
  0.6855000       -3.0554273E-19
  0.8470000       -3.0644940E-19
   1.008500       -3.1238168E-19
   1.170000       -3.1983579E-19
   1.331500       -3.2350677E-19
   1.493000       -3.2206138E-19
   1.654500       -3.1935662E-19
   1.816000       -3.2026761E-19
   1.977500       -3.2581238E-19
   2.139000       -3.3256026E-19
   2.300500       -3.3646639E-19
   2.462000       -3.3678703E-19
   2.623500       -3.3615470E-19
   2.785000       -3.3731515E-19
   2.946500       -3.4042551E-19
   3.108000       -3.4369703E-19
   3.269500       -3.4611297E-19
   3.431000       -3.4874767E-19
   3.592500       -3.5312581E-19
   3.754000       -3.5875459E-19
   3.915500       -3.6303106E-19
   4.077000       -3.6394967E-19
   4.238500       -3.6257296E-19
   4.400000       -3.6223190E-19
   4.561500       -3.6504507E-19
   4.723000       -3.6958192E-19
   4.884500       -3.7252660E-19
   5.046000       -3.7275969E-19
   5.207500       -3.7328159E-19
   5.369000       -3.7839005E-19
   5.530500       -3.8872895E-19
   5.692000       -3.9961811E-19
   5.853500       -4.0505621E-19
   6.015000       -4.0374675E-19
   6.176500       -4.0082862E-19
   6.338000       -4.0298084E-19
   6.499500       -4.1148609E-19
   6.661000       -4.2043574E-19
   6.822500       -4.2242390E-19
   6.984000       -4.1631145E-19
   7.145500       -4.0906452E-19
   7.307000       -4.0928382E-19
   7.468500       -4.1859793E-19
   7.630000       -4.2972444E-19
   7.791500       -4.3359965E-19
   7.953000       -4.2870054E-19
   8.114500       -4.2302234E-19
   8.276000       -4.2624162E-19
   8.437500       -4.3964308E-19
   8.599000       -4.5410742E-19
   8.760500       -4.5871528E-19
   8.922000       -4.5172923E-19
   9.083500       -4.4285802E-19
   9.245000       -4.4405769E-19
   9.406500       -4.5765034E-19
   9.568000       -4.7364202E-19
   9.729500       -4.7925837E-19
   9.891000       -4.7151647E-19
   10.05250       -4.6029939E-19
   10.21400       -4.5862466E-19
   10.37550       -4.6961773E-19
   10.53700       -4.8325572E-19
   10.69850       -4.8640479E-19
   10.86000       -4.7630942E-19
   11.02150       -4.6393262E-19
   11.18300       -4.6341961E-19
   11.34450       -4.7787759E-19
   11.50600       -4.9568586E-19
   11.66750       -5.0136203E-19
   11.82900       -4.9056360E-19
   11.99050       -4.7443011E-19
   12.15200       -4.6882100E-19
   12.31350       -4.7892196E-19
   12.47500       -4.9440714E-19
   12.63650       -4.9997474E-19
   12.79800       -4.9081067E-19
   12.95950       -4.7755520E-19
   13.12100       -4.7571907E-19
   13.28250       -4.9003736E-19
   13.44400       -5.0940569E-19
   13.60550       -5.1766514E-19
   13.76700       -5.0968321E-19
   13.92850       -4.9675613E-19
   14.09000       -4.9579531E-19
   14.25150       -5.1278260E-19
   14.41300       -5.3675466E-19
   14.57450       -5.5023703E-19
   14.73600       -5.4586998E-19
   14.89750       -5.3292171E-19
   15.05900       -5.2747896E-19
   15.22050       -5.3626223E-19
   15.38200       -5.5021521E-19
   15.54350       -5.5413419E-19
   15.70500       -5.4258773E-19
   15.86650       -5.2608222E-19
   16.02800       -5.2119880E-19
   16.18950       -5.3438194E-19
   16.35100       -5.5540856E-19
   16.51250       -5.6700351E-19
   16.67400       -5.6116072E-19
   16.83550       -5.4624666E-19
   16.99700       -5.3821546E-19
   17.15850       -5.4490378E-19
   17.32000       -5.5893452E-19
   17.48150       -5.6589065E-19
   17.64300       -5.5919901E-19
   17.80450       -5.4673599E-19
   17.96600       -5.4273817E-19
   18.12750       -5.5333420E-19
   18.28900       -5.7025847E-19
   18.45050       -5.7893870E-19
   18.61200       -5.7281875E-19
   18.77350       -5.5972220E-19
   18.93500       -5.5417017E-19
   19.09650       -5.6344090E-19
   19.25800       -5.8105530E-19
   19.41950       -5.9368247E-19
   19.58100       -5.9415680E-19
   19.74250       -5.8767331E-19
   19.90400       -5.8551395E-19
   20.06550       -5.9317856E-19
   20.22700       -6.0500776E-19
   20.38850       -6.1036505E-19
   20.55000       -6.0474828E-19
   20.71150       -5.9448866E-19
   20.87300       -5.9051881E-19
   21.03450       -5.9768147E-19
   21.19600       -6.1026821E-19
   21.35750       -6.1789042E-19
   21.51900       -6.1549284E-19
   21.68050       -6.0761007E-19
   21.84200       -6.0317778E-19
   22.00350       -6.0667561E-19
   22.16500       -6.1450581E-19
   22.32650       -6.1966571E-19
   22.48800       -6.1928293E-19
   22.64950       -6.1717889E-19
   22.81100       -6.1922539E-19
   22.97250       -6.2678106E-19
   23.13400       -6.3510907E-19
   23.29550       -6.3816819E-19
   23.45700       -6.3458050E-19
   23.61850       -6.2868689E-19
   23.78000       -6.2599354E-19
   23.94150       -6.2801232E-19
   24.10300       -6.3169783E-19
   24.26450       -6.3349948E-19
   24.42600       -6.3329320E-19
   24.58750       -6.3404102E-19
   24.74900       -6.3797401E-19
   24.91050       -6.4383691E-19
   25.07200       -6.4827422E-19
   25.23350       -6.4963994E-19
   25.39500       -6.4978677E-19
   25.55650       -6.5171792E-19
   25.71800       -6.5576408E-19
   25.87950       -6.5872502E-19
   26.04100       -6.5717545E-19
   26.20250       -6.5140939E-19
   26.36400       -6.4556411E-19
   26.52550       -6.4355913E-19
   26.68700       -6.4514432E-19
   26.84850       -6.4646920E-19
   27.01000       -6.4470659E-19
   27.17150       -6.4169037E-19
   27.33300       -6.4230182E-19
   27.49450       -6.4898843E-19
   27.65600       -6.5829504E-19
   27.81750       -6.6359324E-19
   27.97900       -6.6171740E-19
   28.14050       -6.5668773E-19
   28.30200       -6.5624570E-19
   28.46350       -6.6423932E-19
   28.62500       -6.7651566E-19
   28.78650       -6.8478163E-19
   28.94800       -6.8480442E-19
   29.10950       -6.8066087E-19
   29.27100       -6.8050340E-19
   29.43250       -6.8799072E-19
   29.59400       -6.9822465E-19
   29.75550       -7.0264500E-19
   29.91700       -6.9812575E-19
   30.07850       -6.9084662E-19
   30.24000       -6.9053069E-19
   30.40150       -7.0048405E-19
   30.56300       -7.1353447E-19
   30.72450       -7.1840879E-19
   30.88600       -7.1060569E-19
   31.04750       -6.9702261E-19
   31.20900       -6.8953047E-19
   31.37050       -6.9367258E-19
   31.53200       -7.0364822E-19
   31.69350       -7.0855821E-19
   31.85500       -7.0360712E-19
   32.01650       -6.9493821E-19
   32.17800       -6.9313992E-19
   32.33950       -7.0199313E-19
   32.50100       -7.1398979E-19
   32.66250       -7.1748731E-19
   32.82400       -7.0858158E-19
   32.98550       -6.9577160E-19
   33.14700       -6.9244509E-19
   33.30850       -7.0427946E-19
   33.47000       -7.2384652E-19
   33.63150       -7.3769963E-19
   33.79300       -7.3897891E-19
   33.95450       -7.3320881E-19
   34.11600       -7.3181093E-19
   34.27750       -7.4009147E-19
   34.43900       -7.5182782E-19
   34.60050       -7.5584171E-19
   34.76200       -7.4784148E-19
   34.92350       -7.3550320E-19
   35.08500       -7.3150926E-19
   35.24650       -7.4130334E-19
   35.40800       -7.5765712E-19
   35.56950       -7.6745393E-19
   35.73100       -7.6408431E-19
   35.89250       -7.5338318E-19
   36.05400       -7.4749381E-19
   36.21550       -7.5289964E-19
   36.37700       -7.6440179E-19
   36.53850       -7.7072192E-19
   36.70000       -7.6587102E-19
   36.86150       -7.5491253E-19
   37.02300       -7.4855647E-19
   37.18450       -7.5219953E-19
   37.34600       -7.6043711E-19
   37.50750       -7.6248645E-19
   37.66900       -7.5307118E-19
   37.83050       -7.3799002E-19
   37.99200       -7.2892128E-19
   38.15350       -7.3260699E-19
   38.31500       -7.4491280E-19
   38.47650       -7.5528807E-19
   38.63800       -7.5694228E-19
   38.79950       -7.5273989E-19
   38.96100       -7.5137949E-19
   39.12250       -7.5811325E-19
   39.28400       -7.6939822E-19
   39.44550       -7.7665766E-19
   39.60700       -7.7513156E-19
   39.76850       -7.6887255E-19
   39.93000       -7.6695499E-19
   40.09150       -7.7471596E-19
   40.25300       -7.8862422E-19
   40.41450       -7.9963834E-19
   40.57600       -8.0157431E-19
   40.73750       -7.9635092E-19
   40.89900       -7.9136075E-19
   41.06050       -7.9201163E-19
   41.22200       -7.9691795E-19
   41.38350       -8.0019922E-19
   41.54500       -7.9810480E-19
   41.70650       -7.9311437E-19
   41.86800       -7.9150131E-19
   42.02950       -7.9701013E-19
   42.19100       -8.0706110E-19
   42.35250       -8.1515491E-19
   42.51400       -8.1694575E-19
   42.67550       -8.1399065E-19
   42.83700       -8.1172655E-19
   42.99850       -8.1400094E-19
   43.16000       -8.1960560E-19
   43.32150       -8.2395352E-19
   43.48300       -8.2382660E-19
   43.64450       -8.2032044E-19
   43.80600       -8.1731809E-19
   43.96750       -8.1742976E-19
   44.12900       -8.1967338E-19
   44.29050       -8.2103968E-19
   44.45200       -8.1999474E-19
   44.61350       -8.1814878E-19
   44.77500       -8.1845887E-19
   44.93650       -8.2199104E-19
   45.09800       -8.2663731E-19
   45.25950       -8.2900672E-19
   45.42100       -8.2744629E-19
   45.58250       -8.2319391E-19
   45.74400       -8.1880050E-19
   45.90550       -8.1576020E-19
   46.06700       -8.1381653E-19
   46.22850       -8.1230718E-19
   46.39000       -8.1165981E-19
   46.55150       -8.1315199E-19
   46.71300       -8.1723578E-19
   46.87450       -8.2248481E-19
   47.03600       -8.2660226E-19
   47.19750       -8.2857405E-19
   47.35900       -8.2963331E-19
   47.52050       -8.3188903E-19
   47.68200       -8.3599727E-19
   47.84350       -8.4037590E-19
   48.00500       -8.4286215E-19
   48.16650       -8.4302991E-19
   48.32800       -8.4261193E-19
   48.48950       -8.4349086E-19
   48.65100       -8.4548581E-19
   48.81250       -8.4651565E-19
   48.97400       -8.4519836E-19
   49.13550       -8.4309779E-19
   49.29700       -8.4387596E-19
   49.45850       -8.4974641E-19
   49.62000       -8.5870219E-19
   49.78150       -8.6560739E-19
   49.94300       -8.6652825E-19
   50.10450       -8.6226098E-19
   50.26600       -8.5754745E-19
   50.42750       -8.5665471E-19
   50.58900       -8.5963763E-19
   50.75050       -8.6298445E-19
   50.91200       -8.6385966E-19
   51.07350       -8.6341536E-19
   51.23500       -8.6551785E-19
   51.39650       -8.7205154E-19
   51.55800       -8.7977782E-19
   51.71950       -8.8248188E-19
   51.88100       -8.7679542E-19
   52.04250       -8.6604223E-19
   52.20400       -8.5796884E-19
   52.36550       -8.5811257E-19
   52.52700       -8.6500262E-19
   52.68850       -8.7183658E-19
   52.85000       -8.7303713E-19
   53.01150       -8.6930520E-19
   53.17300       -8.6629478E-19
   53.33450       -8.6840461E-19
   53.49600       -8.7410057E-19
   53.65750       -8.7760192E-19
   53.81900       -8.7523619E-19
   53.98050       -8.6984163E-19
   54.14200       -8.6840388E-19
   54.30350       -8.7495867E-19
   54.46500       -8.8586546E-19
   54.62650       -8.9251630E-19
   54.78800       -8.8928430E-19
   54.94950       -8.7912497E-19
   55.11100       -8.7126810E-19
   55.27250       -8.7302555E-19
   55.43400       -8.8347211E-19
   55.59550       -8.9493818E-19
   55.75700       -9.0059910E-19
   55.91850       -9.0057087E-19
   56.08000       -9.0060220E-19
   56.24150       -9.0500983E-19
   56.40300       -9.1135482E-19
   56.56450       -9.1254462E-19
   56.72600       -9.0442377E-19
   56.88750       -8.9110451E-19
   57.04900       -8.8228253E-19
   57.21050       -8.8468249E-19
   57.37200       -8.9580620E-19
   57.53350       -9.0612466E-19
   57.69500       -9.0777106E-19
   57.85650       -9.0145543E-19
   58.01800       -8.9511251E-19
   58.17950       -8.9584146E-19
   58.34100       -9.0316759E-19
   58.50250       -9.1008768E-19
   58.66400       -9.1053736E-19
   58.82550       -9.0553995E-19
   58.98700       -9.0184845E-19
   59.14850       -9.0455778E-19
   59.31000       -9.1136527E-19
   59.47150       -9.1450648E-19
   59.63300       -9.0863970E-19
   59.79450       -8.9682601E-19
   59.95600       -8.8847087E-19
   60.11750       -8.9093887E-19
   60.27900       -9.0283631E-19
   60.44050       -9.1536613E-19
   60.60200       -9.2037285E-19
   60.76350       -9.1730814E-19
   60.92500       -9.1266580E-19
   61.08650       -9.1293422E-19
   61.24800       -9.1832175E-19
   61.40950       -9.2337955E-19
   61.57100       -9.2346237E-19
   61.73250       -9.2011560E-19
   61.89400       -9.1972165E-19
   62.05550       -9.2672663E-19
   62.21700       -9.3838264E-19
   62.37850       -9.4651858E-19
   62.54000       -9.4486866E-19
   62.70150       -9.3492688E-19
   62.86300       -9.2469838E-19
   63.02450       -9.2161279E-19
   63.18600       -9.2638945E-19
   63.34750       -9.3347094E-19
   63.50900       -9.3708831E-19
   63.67050       -9.3670584E-19
   63.83200       -9.3664029E-19
   63.99350       -9.4074858E-19
   64.15500       -9.4795043E-19
   64.31650       -9.5322205E-19
   64.47800       -9.5291982E-19
   64.63950       -9.4882993E-19
   64.80100       -9.4670521E-19
   64.96250       -9.5068250E-19
   65.12400       -9.5912688E-19
   65.28550       -9.6600623E-19
   65.44700       -9.6641589E-19
   65.60850       -9.6089053E-19
   65.77000       -9.5453799E-19
   65.93150       -9.5219842E-19
   66.09300       -9.5449519E-19
   66.25450       -9.5836226E-19
   66.41600       -9.6091018E-19
   66.57750       -9.6233448E-19
   66.73900       -9.6494423E-19
   66.90050       -9.6969784E-19
   67.06200       -9.7419811E-19
   67.22350       -9.7446240E-19
   67.38500       -9.6873200E-19
   67.54650       -9.5943780E-19
   67.70800       -9.5132719E-19
   67.86950       -9.4762421E-19
   68.03100       -9.4792013E-19
   68.19250       -9.4954544E-19
   68.35400       -9.5062605E-19
   68.51550       -9.5158227E-19
   68.67700       -9.5383168E-19
   68.83850       -9.5752256E-19
   69.00000       -9.6102030E-19
   69.16150       -9.6270206E-19
   69.32300       -9.6294887E-19
   69.48450       -9.6395400E-19
   69.64600       -9.6742009E-19
   69.80750       -9.7260672E-19
   69.96900       -9.7690082E-19
   70.13050       -9.7839047E-19
   70.29200       -9.7771446E-19
   70.45350       -9.7724152E-19
   70.61500       -9.7849035E-19
   70.77650       -9.8063058E-19
   70.93800       -9.8168647E-19
   71.09950       -9.8107157E-19
   71.26100       -9.8051002E-19
   71.42250       -9.8215011E-19
   71.58400       -9.8585236E-19
   71.74550       -9.8877986E-19
   71.90700       -9.8811253E-19
   72.06850       -9.8423295E-19
   72.23000       -9.8091544E-19
   72.39150       -9.8195624E-19
   72.55300       -9.8744169E-19
   72.71450       -9.9348817E-19
   72.87600       -9.9588586E-19
   73.03750       -9.9405241E-19
   73.19900       -9.9127443E-19
   73.36050       -9.9096889E-19
   73.52200       -9.9289911E-19
   73.68350       -9.9340793E-19
   73.84500       -9.8959205E-19
   74.00650       -9.8304512E-19
   74.16800       -9.7901106E-19
   74.32950       -9.8141619E-19
   74.49100       -9.8871131E-19
   74.65250       -9.9494918E-19
   74.81400       -9.9535718E-19
   74.97550       -9.9099887E-19
   75.13700       -9.8777659E-19
   75.29850       -9.9059449E-19
   75.46000       -9.9840142E-19
   75.62150       -1.0050785E-18
   75.78300       -1.0053171E-18
   75.94450       -9.9961406E-19
   76.10600       -9.9340845E-19
   76.26750       -9.9133026E-19
   76.42900       -9.9253722E-19
   76.59050       -9.9201103E-19
   76.75200       -9.8651297E-19
   76.91350       -9.7897973E-19
   77.07500       -9.7652166E-19
   77.23650       -9.8365868E-19
   77.39800       -9.9740994E-19
   77.55950       -1.0092922E-18
   77.72100       -1.0125362E-18
   77.88250       -1.0077103E-18
   78.04400       -1.0014618E-18
   78.20550       -9.9985260E-19
   78.36700       -1.0029359E-18
   78.52850       -1.0057400E-18
   78.69000       -1.0042485E-18
   78.85150       -1.0000047E-18
   79.01300       -9.9855868E-19
   79.17450       -1.0033887E-18
   79.33600       -1.0116594E-18
   79.49750       -1.0163463E-18
   79.65900       -1.0128251E-18
   79.82050       -1.0034454E-18
   79.98200       -9.9553896E-19
   80.14350       -9.9475252E-19
   80.30500       -1.0001294E-18
   80.46650       -1.0055215E-18
   80.62800       -1.0056762E-18
   80.78950       -1.0009360E-18
   80.95100       -9.9617454E-19
   81.11250       -9.9546699E-19
   81.27400       -9.9807830E-19
   81.43550       -9.9969306E-19
   81.59700       -9.9734459E-19
   81.75850       -9.9280750E-19
   81.92000       -9.9095327E-19
   82.08150       -9.9476647E-19
   82.24300       -1.0020713E-18
   82.40450       -1.0072418E-18
   82.56600       -1.0062076E-18
   82.72750       -9.9993036E-19
   82.88900       -9.9321985E-19
   83.05050       -9.9033651E-19
   83.21200       -9.9172379E-19
   83.37350       -9.9470278E-19
   83.53500       -9.9687961E-19
   83.69650       -9.9852797E-19
   83.85800       -1.0016601E-18
   84.01950       -1.0070820E-18
   84.18100       -1.0127286E-18
   84.34250       -1.0151007E-18
   84.50400       -1.0123748E-18
   84.66550       -1.0061187E-18
   84.82700       -1.0000469E-18
   84.98850       -9.9715000E-19
   85.15000       -9.9789921E-19
   85.31150       -1.0008728E-18
   85.47300       -1.0046715E-18
   85.63450       -1.0090093E-18
   85.79600       -1.0141038E-18
   85.95750       -1.0194523E-18
   86.11900       -1.0235999E-18
   86.28050       -1.0252455E-18
   86.44200       -1.0244325E-18
   86.60350       -1.0225045E-18
   86.76500       -1.0208632E-18
   86.92650       -1.0198435E-18
   87.08800       -1.0188291E-18
   87.24950       -1.0173016E-18
   87.41100       -1.0155619E-18
   87.57250       -1.0143252E-18
   87.73400       -1.0137796E-18
   87.89550       -1.0133495E-18
   88.05700       -1.0125472E-18
   88.21850       -1.0119435E-18
   88.38000       -1.0129443E-18
   88.54150       -1.0163261E-18
   88.70300       -1.0209669E-18
   88.86450       -1.0242654E-18
   89.02600       -1.0241395E-18
   89.18750       -1.0207940E-18
   89.34900       -1.0165264E-18
   89.51050       -1.0136895E-18
   89.67200       -1.0128070E-18
   89.83350       -1.0126806E-18
   89.99500       -1.0122948E-18
   90.15650       -1.0124104E-18
   90.31800       -1.0149826E-18
   90.47950       -1.0208287E-18
   90.64100       -1.0279529E-18
   90.80250       -1.0325412E-18
   90.96400       -1.0320206E-18
   91.12550       -1.0273996E-18
   91.28700       -1.0225256E-18
   91.44850       -1.0207853E-18
   91.61000       -1.0222827E-18
   91.77150       -1.0241465E-18
   91.93300       -1.0236561E-18
   92.09450       -1.0210942E-18
   92.25600       -1.0194861E-18
   92.41750       -1.0214601E-18
   92.57900       -1.0263388E-18
   92.74050       -1.0304464E-18
   92.90200       -1.0304600E-18
   93.06350       -1.0265683E-18
   93.22500       -1.0222838E-18
   93.38650       -1.0209976E-18
   93.54800       -1.0226302E-18
   93.70950       -1.0237463E-18
   93.87100       -1.0211610E-18
   94.03250       -1.0155641E-18
   94.19400       -1.0114962E-18
   94.35550       -1.0134610E-18
   94.51700       -1.0217315E-18
   94.67850       -1.0318222E-18
   94.84000       -1.0382252E-18
   95.00150       -1.0389488E-18
   95.16300       -1.0366742E-18
   95.32450       -1.0356038E-18
   95.48600       -1.0372005E-18
   95.64750       -1.0390135E-18
   95.80900       -1.0376665E-18
   95.97050       -1.0328993E-18
   96.13200       -1.0284828E-18
   96.29350       -1.0288809E-18
   96.45500       -1.0348169E-18
   96.61650       -1.0421297E-18
   96.77800       -1.0452564E-18
   96.93950       -1.0421918E-18
   97.10100       -1.0362571E-18
   97.26250       -1.0329720E-18
   97.42400       -1.0349469E-18
   97.58550       -1.0395832E-18
   97.74700       -1.0416765E-18
   97.90850       -1.0383453E-18
   98.07000       -1.0315968E-18
   98.23150       -1.0262189E-18
   98.39300       -1.0252237E-18
   98.55450       -1.0273438E-18
   98.71600       -1.0289286E-18
   98.87750       -1.0281872E-18
   99.03900       -1.0273932E-18
   99.20050       -1.0307123E-18
   99.36200       -1.0396812E-18
   99.52350       -1.0507968E-18
   99.68500       -1.0577603E-18
   99.84650       -1.0565074E-18
   100.0080       -1.0484941E-18
   100.1695       -1.0393158E-18
   100.3310       -1.0340505E-18
   100.4925       -1.0336080E-18
   100.6540       -1.0351812E-18
   100.8155       -1.0358947E-18
   100.9770       -1.0358333E-18
   101.1385       -1.0375382E-18
   101.3000       -1.0426967E-18
   101.4615       -1.0495658E-18
   101.6230       -1.0538494E-18
   101.7845       -1.0523491E-18
   101.9460       -1.0459422E-18
   102.1075       -1.0390372E-18
   102.2690       -1.0359802E-18
   102.4305       -1.0376711E-18
   102.5920       -1.0413399E-18
   102.7535       -1.0434341E-18
   102.9150       -1.0427957E-18
   103.0765       -1.0412613E-18
   103.2380       -1.0414241E-18
   103.3995       -1.0438997E-18
   103.5610       -1.0467142E-18
   103.7225       -1.0472497E-18
   103.8840       -1.0447727E-18
   104.0455       -1.0411654E-18
   104.2070       -1.0392508E-18
   104.3685       -1.0403602E-18
   104.5300       -1.0433323E-18
   104.6915       -1.0457334E-18
   104.8530       -1.0460516E-18
   105.0145       -1.0449077E-18
   105.1760       -1.0443153E-18
   105.3375       -1.0458090E-18
   105.4990       -1.0491249E-18
   105.6605       -1.0525067E-18
   105.8220       -1.0542368E-18
   105.9835       -1.0539969E-18
   106.1450       -1.0529109E-18
   106.3065       -1.0523060E-18
   106.4680       -1.0523146E-18
   106.6295       -1.0515850E-18
   106.7910       -1.0484264E-18
   106.9525       -1.0425255E-18
   107.1140       -1.0357978E-18
   107.2755       -1.0315370E-18
   107.4370       -1.0323345E-18
   107.5985       -1.0382884E-18
   107.7600       -1.0468922E-18
   107.9215       -1.0546971E-18
   108.0830       -1.0594442E-18
   108.2445       -1.0609905E-18
   108.4060       -1.0604464E-18
   108.5675       -1.0585798E-18
   108.7290       -1.0551617E-18
   108.8905       -1.0499519E-18
   109.0520       -1.0442373E-18
   109.2135       -1.0410655E-18
   109.3750       -1.0433708E-18
   109.5365       -1.0513409E-18
   109.6980       -1.0614592E-18
   109.8595       -1.0684840E-18
   110.0210       -1.0690702E-18
   110.1825       -1.0640838E-18
   110.3440       -1.0576116E-18
   110.5055       -1.0535290E-18
   110.6670       -1.0526434E-18
   110.8285       -1.0528369E-18
   110.9900       -1.0518163E-18
   111.1515       -1.0496468E-18
   111.3130       -1.0485508E-18
   111.4745       -1.0502483E-18
   111.6360       -1.0536384E-18
   111.7975       -1.0553992E-18
   111.9590       -1.0531780E-18
   112.1205       -1.0483271E-18
   112.2820       -1.0452900E-18
   112.4435       -1.0478446E-18
   112.6050       -1.0555223E-18
   112.7665       -1.0636030E-18
   112.9280       -1.0668885E-18
   113.0895       -1.0639444E-18
   113.2510       -1.0580120E-18
   113.4125       -1.0538512E-18
   113.5740       -1.0535427E-18
   113.7355       -1.0551529E-18
   113.8970       -1.0553442E-18
   114.0585       -1.0531650E-18
   114.2200       -1.0511583E-18
   114.3815       -1.0526103E-18
   114.5430       -1.0576686E-18
   114.7045       -1.0623289E-18
   114.8660       -1.0616242E-18
   115.0275       -1.0542316E-18
   115.1890       -1.0441681E-18
   115.3505       -1.0377940E-18
   115.5120       -1.0387272E-18
   115.6735       -1.0452351E-18
   115.8350       -1.0523832E-18
   115.9965       -1.0567485E-18
   116.1580       -1.0591780E-18
   116.3195       -1.0630635E-18
   116.4810       -1.0700192E-18
   116.6425       -1.0773976E-18
   116.8040       -1.0802794E-18
   116.9655       -1.0761554E-18
   117.1270       -1.0677412E-18
   117.2885       -1.0610421E-18
   117.4500       -1.0602870E-18
   117.6115       -1.0644295E-18
   117.7730       -1.0684804E-18
   117.9345       -1.0683845E-18
   118.0960       -1.0647895E-18
   118.2575       -1.0621548E-18
   118.4190       -1.0641487E-18
   118.5805       -1.0698645E-18
   118.7420       -1.0745411E-18