  -27.90000        9.1246029E-18
  -27.73850        9.1505838E-18
  -27.57700        9.1880154E-18
  -27.41550        9.2180048E-18
  -27.25400        9.2296250E-18
  -27.09250        9.2266761E-18
  -26.93100        9.2243699E-18
  -26.76950        9.2382864E-18
  -26.60800        9.2731852E-18
  -26.44650        9.3193071E-18
  -26.28500        9.3586900E-18
  -26.12350        9.3772040E-18
  -25.96200        9.3741012E-18
  -25.80050        9.3625678E-18
  -25.63900        9.3608936E-18
  -25.47750        9.3802108E-18
  -25.31600        9.4171535E-18
  -25.15450        9.4563726E-18
  -24.99300        9.4811607E-18
  -24.83150        9.4848946E-18
  -24.67000        9.4754921E-18
  -24.50850        9.4698507E-18
  -24.34700        9.4821600E-18
  -24.18550        9.5141346E-18
  -24.02400        9.5538534E-18
  -23.86250        9.5839751E-18
  -23.70100        9.5936308E-18
  -23.53950        9.5858570E-18
  -23.37800        9.5755023E-18
  -23.21650        9.5790708E-18
  -23.05500        9.6034511E-18
  -22.89350        9.6412111E-18
  -22.73200        9.6756350E-18
  -22.57050        9.6920992E-18
  -22.40900        9.6880096E-18
  -22.24750        9.6745605E-18
  -22.08600        9.6690879E-18
  -21.92450        9.6832294E-18
  -21.76300        9.7149741E-18
  -21.60150        9.7500862E-18
  -21.44000        9.7719652E-18
  -21.27850        9.7732076E-18
  -21.11700        9.7608851E-18
  -20.95550        9.7518539E-18
  -20.79400        9.7612284E-18
  -20.63250        9.7919209E-18
  -20.47100        9.8324437E-18
  -20.30950        9.8645308E-18
  -20.14800        9.8754049E-18
  -19.98650        9.8663167E-18
  -19.82500        9.8515499E-18
  -19.66350        9.8485819E-18
  -19.50200        9.8661413E-18
  -19.34050        9.8983269E-18
  -19.17900        9.9287945E-18
  -19.01750        9.9421609E-18
  -18.85600        9.9347948E-18
  -18.69450        9.9175978E-18
  -18.53300        9.9088007E-18
  -18.37150        9.9216716E-18
  -18.21000        9.9554826E-18
  -18.04850        9.9958962E-18
  -17.88700        1.0024519E-17
  -17.72550        1.0031114E-17
  -17.56400        1.0020176E-17
  -17.40250        1.0007498E-17
  -17.24100        1.0009172E-17
  -17.07950        1.0030594E-17
  -16.91800        1.0062938E-17
  -16.75650        1.0089388E-17
  -16.59500        1.0096811E-17
  -16.43350        1.0084907E-17
  -16.27200        1.0066675E-17
  -16.11050        1.0059896E-17
  -15.94900        1.0075390E-17
  -15.78750        1.0109902E-17
  -15.62600        1.0148384E-17
  -15.46450        1.0174092E-17
  -15.30300        1.0179691E-17
  -15.14150        1.0171890E-17
  -14.98000        1.0166491E-17
  -14.81850        1.0177246E-17
  -14.65700        1.0206157E-17
  -14.49550        1.0241896E-17
  -14.33400        1.0267451E-17
  -14.17250        1.0271763E-17
  -14.01100        1.0257342E-17
  -13.84950        1.0238636E-17
  -13.68800        1.0232258E-17
  -13.52650        1.0245834E-17
  -13.36500        1.0273084E-17
  -13.20350        1.0298452E-17
  -13.04200        1.0307991E-17
  -12.88050        1.0299022E-17
  -12.71900        1.0282003E-17
  -12.55750        1.0273394E-17
  -12.39600        1.0284495E-17
  -12.23450        1.0313851E-17
  -12.07300        1.0348361E-17
  -11.91150        1.0372253E-17
  -11.75000        1.0377791E-17
  -11.58850        1.0370436E-17
  -11.42700        1.0364943E-17
  -11.26550        1.0375101E-17
  -11.10400        1.0404073E-17
  -10.94250        1.0441937E-17
  -10.78100        1.0472099E-17
  -10.61950        1.0482264E-17
  -10.45800        1.0472534E-17
  -10.29650        1.0455195E-17
  -10.13500        1.0446379E-17
  -9.973500        1.0455269E-17
  -9.812000        1.0478119E-17
  -9.650500        1.0501083E-17
  -9.489000        1.0509918E-17
  -9.327500        1.0499997E-17
  -9.166000        1.0479889E-17
  -9.004500        1.0466005E-17
  -8.843000        1.0471821E-17
  -8.681500        1.0498827E-17
  -8.520000        1.0535304E-17
  -8.358500        1.0563891E-17
  -8.197000        1.0572985E-17
  -8.035500        1.0564375E-17
  -7.874000        1.0551871E-17
  -7.712500        1.0551781E-17
  -7.551000        1.0571643E-17
  -7.389500        1.0604924E-17
  -7.228000        1.0635403E-17
  -7.066500        1.0648321E-17
  -6.905000        1.0640646E-17
  -6.743500        1.0623396E-17
  -6.582000        1.0614373E-17
  -6.420500        1.0626224E-17
  -6.259000        1.0657957E-17
  -6.097500        1.0695629E-17
  -5.936000        1.0721690E-17
  -5.774500        1.0726653E-17
  -5.613000        1.0715236E-17
  -5.451500        1.0702929E-17
  -5.290000        1.0705363E-17
  -5.128500        1.0727671E-17
  -4.967000        1.0760963E-17
  -4.805500        1.0788311E-17
  -4.644000        1.0796245E-17
  -4.482500        1.0783996E-17
  -4.321000        1.0764244E-17
  -4.159500        1.0754744E-17
  -3.998000        1.0766439E-17
  -3.836500        1.0796054E-17
  -3.675000        1.0828271E-17
  -3.513500        1.0846068E-17
  -3.352000        1.0842266E-17
  -3.190500        1.0824414E-17
  -3.029000        1.0809667E-17
  -2.867500        1.0813039E-17
  -2.706000        1.0837071E-17
  -2.544500        1.0869961E-17
  -2.383000        1.0893525E-17
  -2.221500        1.0895667E-17
  -2.060000        1.0878821E-17
  -1.898500        1.0858531E-17
  -1.737000        1.0852946E-17
  -1.575500        1.0870295E-17
  -1.414000        1.0902987E-17
  -1.252500        1.0932544E-17
  -1.091000        1.0942211E-17
 -0.9295000        1.0928627E-17
 -0.7680000        1.0904418E-17
 -0.6065000        1.0889738E-17
 -0.4450000        1.0898446E-17
 -0.2835000        1.0928509E-17
 -0.1220000        1.0963359E-17
  3.9500002E-02    1.0983427E-17
  0.2010000        1.0979869E-17
  0.3625000        1.0960923E-17
  0.5240000        1.0946374E-17
  0.6855000        1.0953882E-17
  0.8470000        1.0986591E-17
   1.008500        1.1030583E-17
   1.170000        1.1064001E-17
   1.331500        1.1071645E-17
   1.493000        1.1055138E-17
   1.654500        1.1031728E-17
   1.816000        1.1022537E-17
   1.977500        1.1038186E-17
   2.139000        1.1071584E-17
   2.300500        1.1102827E-17
   2.462000        1.1112952E-17
   2.623500        1.1097257E-17
   2.785000        1.1069028E-17
   2.946500        1.1050998E-17
   3.108000        1.1060113E-17
   3.269500        1.1095942E-17
   3.431000        1.1140723E-17
   3.592500        1.1171207E-17
   3.754000        1.1174366E-17
   3.915500        1.1156191E-17
   4.077000        1.1137474E-17
   4.238500        1.1139355E-17
   4.400000        1.1168545E-17
   4.561500        1.1212471E-17
   4.723000        1.1247764E-17
   4.884500        1.1256331E-17
   5.046000        1.1237902E-17
   5.207500        1.1210348E-17
   5.369000        1.1197465E-17
   5.530500        1.1212600E-17
   5.692000        1.1249454E-17
   5.853500        1.1286414E-17
   6.015000        1.1301489E-17
   6.176500        1.1287525E-17
   6.338000        1.1257173E-17
   6.499500        1.1234179E-17
   6.661000        1.1236965E-17
   6.822500        1.1265910E-17
   6.984000        1.1303175E-17
   7.145500        1.1325250E-17
   7.307000        1.1319455E-17
   7.468500        1.1292899E-17
   7.630000        1.1267597E-17
   7.791500        1.1265159E-17
   7.953000        1.1291709E-17
   8.114500        1.1333530E-17
   8.276000        1.1366463E-17
   8.437500        1.1372506E-17
   8.599000        1.1352151E-17
   8.760500        1.1323934E-17
   8.922000        1.1311609E-17
   9.083500        1.1327788E-17
   9.245000        1.1365317E-17
   9.406500        1.1402260E-17
   9.568000        1.1417067E-17
   9.729500        1.1403538E-17
   9.891000        1.1375324E-17
   10.05250        1.1356778E-17
   10.21400        1.1366278E-17
   10.37550        1.1403390E-17
   10.53700        1.1448792E-17
   10.69850        1.1477230E-17
   10.86000        1.1474752E-17
   11.02150        1.1448342E-17
   11.18300        1.1421178E-17
   11.34450        1.1416654E-17
   11.50600        1.1442169E-17
   11.66750        1.1483982E-17
   11.82900        1.1516783E-17
   11.99050        1.1521383E-17
   12.15200        1.1498197E-17
   12.31350        1.1467099E-17
   12.47500        1.1453765E-17
   12.63650        1.1471983E-17
   12.79800        1.1514204E-17
   12.95950        1.1556743E-17
   13.12100        1.1575976E-17
   13.28250        1.1564327E-17
   13.44400        1.1535173E-17
   13.60550        1.1513416E-17
   13.76700        1.1518295E-17
   13.92850        1.1550258E-17
   14.09000        1.1590873E-17
   14.25150        1.1615739E-17
   14.41300        1.1611449E-17
   14.57450        1.1584908E-17
   14.73600        1.1558594E-17
   14.89750        1.1555107E-17
   15.05900        1.1581673E-17
   15.22050        1.1625296E-17
   15.38200        1.1661803E-17
   15.54350        1.1672475E-17
   15.70500        1.1656723E-17
   15.86650        1.1632141E-17
   16.02800        1.1622105E-17
   16.18950        1.1639620E-17
   16.35100        1.1678514E-17
   16.51250        1.1717885E-17
   16.67400        1.1736532E-17
   16.83550        1.1727438E-17
   16.99700        1.1702481E-17
   17.15850        1.1684190E-17
   17.32000        1.1690228E-17
   17.48150        1.1721166E-17
   17.64300        1.1759948E-17
   17.80450        1.1783486E-17
   17.96600        1.1778507E-17
   18.12750        1.1750766E-17
   18.28900        1.1721244E-17
   18.45050        1.1711822E-17
   18.61200        1.1730291E-17
   18.77350        1.1765103E-17
   18.93500        1.1793595E-17
   19.09650        1.1797978E-17
   19.25800        1.1777890E-17
   19.41950        1.1750719E-17
   19.58100        1.1739505E-17
   19.74250        1.1756931E-17
   19.90400        1.1796544E-17
   20.06550        1.1837146E-17
   20.22700        1.1857201E-17
   20.38850        1.1849277E-17
   20.55000        1.1824751E-17
   20.71150        1.1805710E-17
   20.87300        1.1809735E-17
   21.03450        1.1837974E-17
   21.19600        1.1874540E-17
   21.35750        1.1897549E-17
   21.51900        1.1894172E-17
   21.68050        1.1869488E-17
   21.84200        1.1843123E-17
   22.00350        1.1835978E-17
   22.16500        1.1856070E-17
   22.32650        1.1893136E-17
   22.48800        1.1925708E-17
   22.64950        1.1935791E-17
   22.81100        1.1921042E-17
   22.97250        1.1896143E-17
   23.13400        1.1882532E-17
   23.29550        1.1893721E-17
   23.45700        1.1926211E-17
   23.61850        1.1962088E-17
   23.78000        1.1981353E-17
   23.94150        1.1975499E-17
   24.10300        1.1953188E-17
   24.26450        1.1934261E-17
   24.42600        1.1936186E-17
   24.58750        1.1962182E-17
   24.74900        1.1999032E-17
   24.91050        1.2026058E-17
   25.07200        1.2029164E-17
   25.23350        1.2010432E-17
   25.39500        1.1986725E-17
   25.55650        1.1978192E-17
   25.71800        1.1994487E-17
   25.87950        1.2028211E-17
   26.04100        1.2060146E-17
   26.20250        1.2072688E-17
   26.36400        1.2062058E-17
   26.52550        1.2040795E-17
   26.68700        1.2028890E-17
   26.84850        1.2039865E-17
   27.01000        1.2071464E-17
   27.17150        1.2107281E-17
   27.33300        1.2128008E-17
   27.49450        1.2124498E-17
   27.65600        1.2103766E-17
   27.81750        1.2083959E-17
   27.97900        1.2081931E-17
   28.14050        1.2101934E-17
   28.30200        1.2133036E-17
   28.46350        1.2156843E-17
   28.62500        1.2160169E-17
   28.78650        1.2144065E-17
   28.94800        1.2123133E-17
   29.10950        1.2115574E-17
   29.27100        1.2130707E-17
   29.43250        1.2162477E-17
   29.59400        1.2193455E-17
   29.75550        1.2206644E-17
   29.91700        1.2196947E-17
   30.07850        1.2174456E-17
   30.24000        1.2157403E-17
   30.40150        1.2159706E-17
   30.56300        1.2181646E-17
   30.72450        1.2209917E-17
   30.88600        1.2226941E-17
   31.04750        1.2223018E-17
   31.20900        1.2203071E-17
   31.37050        1.2183389E-17
   31.53200        1.2180630E-17
   31.69350        1.2200549E-17
   31.85500        1.2234058E-17
   32.01650        1.2263267E-17
   32.17800        1.2273445E-17
   32.33950        1.2262888E-17
   32.50100        1.2244005E-17
   32.66250        1.2234799E-17
   32.82400        1.2246466E-17
   32.98550        1.2275642E-17
   33.14700        1.2306713E-17
   33.30850        1.2322601E-17
   33.47000        1.2316539E-17
   33.63150        1.2296657E-17
   33.79300        1.2280333E-17
   33.95450        1.2282323E-17
   34.11600        1.2304828E-17
   34.27750        1.2336218E-17
   34.43900        1.2359141E-17
   34.60050        1.2362378E-17
   34.76200        1.2348352E-17
   34.92350        1.2331291E-17
   35.08500        1.2327479E-17
   35.24650        1.2344311E-17
   35.40800        1.2375462E-17
   35.56950        1.2405274E-17
   35.73100        1.2419281E-17
   35.89250        1.2413820E-17
   36.05400        1.2398310E-17
   36.21550        1.2388638E-17
   36.37700        1.2396165E-17
   36.53850        1.2419859E-17
   36.70000        1.2446956E-17
   36.86150        1.2461685E-17
   37.02300        1.2456020E-17
   37.18450        1.2435120E-17
   37.34600        1.2413867E-17
   37.50750        1.2406904E-17
   37.66900        1.2418957E-17
   37.83050        1.2441934E-17
   37.99200        1.2460731E-17
   38.15350        1.2463732E-17
   38.31500        1.2450828E-17
   38.47650        1.2433472E-17
   38.63800        1.2426792E-17
   38.79950        1.2439166E-17
   38.96100        1.2466336E-17
   39.12250        1.2494082E-17
   39.28400        1.2507681E-17
   39.44550        1.2501831E-17
   39.60700        1.2484237E-17
   39.76850        1.2470314E-17
   39.93000        1.2472582E-17
   40.09150        1.2492109E-17
   40.25300        1.2517933E-17
   40.41450        1.2534798E-17
   40.57600        1.2533756E-17
   40.73750        1.2518310E-17
   40.89900        1.2502003E-17
   41.06050        1.2499222E-17
   41.22200        1.2515507E-17
   41.38350        1.2543919E-17
   41.54500        1.2569806E-17
   41.70650        1.2580662E-17
   41.86800        1.2574339E-17
   42.02950        1.2560208E-17
   42.19100        1.2552659E-17
   42.35250        1.2561413E-17
   42.51400        1.2585069E-17
   42.67550        1.2612066E-17
   42.83700        1.2628383E-17
   42.99850        1.2626922E-17
   43.16000        1.2612302E-17
   43.32150        1.2597813E-17
   43.48300        1.2596531E-17
   43.64450        1.2612599E-17
   43.80600        1.2638573E-17
   43.96750        1.2660539E-17
   44.12900        1.2667488E-17
   44.29050        1.2658658E-17
   44.45200        1.2643970E-17
   44.61350        1.2637314E-17
   44.77500        1.2647156E-17
   44.93650        1.2670820E-17
   45.09800        1.2696284E-17
   45.25950        1.2710284E-17
   45.42100        1.2707211E-17
   45.58250        1.2692792E-17
   45.74400        1.2680154E-17
   45.90550        1.2680923E-17
   46.06700        1.2697358E-17
   46.22850        1.2720800E-17
   46.39000        1.2737576E-17
   46.55150        1.2738422E-17
   46.71300        1.2724946E-17
   46.87450        1.2708628E-17
   47.03600        1.2703009E-17
   47.19750        1.2714493E-17
   47.35900        1.2738101E-17
   47.52050        1.2760967E-17
   47.68200        1.2771121E-17
   47.84350        1.2765528E-17
   48.00500        1.2752026E-17
   48.16650        1.2743897E-17
   48.32800        1.2750736E-17
   48.48950        1.2771828E-17
   48.65100        1.2796482E-17
   48.81250        1.2811088E-17
   48.97400        1.2808135E-17
   49.13550        1.2791241E-17
   49.29700        1.2772873E-17
   49.45850        1.2766232E-17
   49.62000        1.2776571E-17
   49.78150        1.2797695E-17
   49.94300        1.2816128E-17
   50.10450        1.2820319E-17
   50.26600        1.2808721E-17
   50.42750        1.2791147E-17
   50.58900        1.2782343E-17
   50.75050        1.2792034E-17
   50.91200        1.2818168E-17
   51.07350        1.2847959E-17
   51.23500        1.2866172E-17
   51.39650        1.2865208E-17
   51.55800        1.2850185E-17
   51.71950        1.2835486E-17
   51.88100        1.2834954E-17
   52.04250        1.2852375E-17
   52.20400        1.2878796E-17
   52.36550        1.2898553E-17
   52.52700        1.2899969E-17
   52.68850        1.2883456E-17
   52.85000        1.2861496E-17
   53.01150        1.2850425E-17
   53.17300        1.2859504E-17
   53.33450        1.2884698E-17
   53.49600        1.2911478E-17
   53.65750        1.2924802E-17
   53.81900        1.2919396E-17
   53.98050        1.2903298E-17
   54.14200        1.2892280E-17
   54.30350        1.2899042E-17
   54.46500        1.2924519E-17
   54.62650        1.2957135E-17
   54.78800        1.2980494E-17
   54.94950        1.2984358E-17
   55.11100        1.2971533E-17
   55.27250        1.2955941E-17
   55.43400        1.2953145E-17
   55.59550        1.2969716E-17
   55.75700        1.2998688E-17
   55.91850        1.3024216E-17
   56.08000        1.3032332E-17
   56.24150        1.3020526E-17
   56.40300        1.2999639E-17
   56.56450        1.2986622E-17
   56.72600        1.2992963E-17
   56.88750        1.3016665E-17
   57.04900        1.3043450E-17
   57.21050        1.3056469E-17
   57.37200        1.3047945E-17
   57.53350        1.3024665E-17
   57.69500        1.3003500E-17
   57.85650        1.2999951E-17
   58.01800        1.3017479E-17
   58.17950        1.3044960E-17
   58.34100        1.3064150E-17
   58.50250        1.3062250E-17
   58.66400        1.3040952E-17
   58.82550        1.3015586E-17
   58.98700        1.3004747E-17
   59.14850        1.3017455E-17
   59.31000        1.3046761E-17
   59.47150        1.3074347E-17
   59.63300        1.3083091E-17
   59.79450        1.3068981E-17
   59.95600        1.3044132E-17
   60.11750        1.3028579E-17
   60.27900        1.3036430E-17
   60.44050        1.3065923E-17
   60.60200        1.3100422E-17
   60.76350        1.3119711E-17
   60.92500        1.3113824E-17
   61.08650        1.3089868E-17
   61.24800        1.3067162E-17
   61.40950        1.3064072E-17
   61.57100        1.3085448E-17
   61.73250        1.3119237E-17
   61.89400        1.3144663E-17
   62.05550        1.3146530E-17
   62.21700        1.3125896E-17
   62.37850        1.3099735E-17
   62.54000        1.3089624E-17
   62.70150        1.3107073E-17
   62.86300        1.3145534E-17
   63.02450        1.3184646E-17
   63.18600        1.3203961E-17
   63.34750        1.3196844E-17
   63.50900        1.3174943E-17
   63.67050        1.3160018E-17
   63.83200        1.3168642E-17
   63.99350        1.3200425E-17
   64.15500        1.3238022E-17
   64.31650        1.3258981E-17
   64.47800        1.3251225E-17
   64.63950        1.3221448E-17
   64.80100        1.3190690E-17
   64.96250        1.3180122E-17
   65.12400        1.3196766E-17
   65.28550        1.3228878E-17
   65.44700        1.3254178E-17
   65.60850        1.3255302E-17
   65.77000        1.3231871E-17
   65.93150        1.3200813E-17
   66.09300        1.3184675E-17
   66.25450        1.3195989E-17
   66.41600        1.3228499E-17
   66.57750        1.3261396E-17
   66.73900        1.3273722E-17
   66.90050        1.3258997E-17
   67.06200        1.3229835E-17
   67.22350        1.3209193E-17
   67.38500        1.3214320E-17
   67.54650        1.3244697E-17
   67.70800        1.3282449E-17
   67.86950        1.3304884E-17
   68.03100        1.3300235E-17
   68.19250        1.3275660E-17
   68.35400        1.3252041E-17
   68.51550        1.3249365E-17
   68.67700        1.3272862E-17
   68.83850        1.3309459E-17
   69.00000        1.3336916E-17
   69.16150        1.3339293E-17
   69.32300        1.3318079E-17
   69.48450        1.3291297E-17
   69.64600        1.3281195E-17
   69.80750        1.3298943E-17
   69.96900        1.3336849E-17
   70.13050        1.3373452E-17
   70.29200        1.3388150E-17
   70.45350        1.3375338E-17
   70.61500        1.3348246E-17
   70.77650        1.3329686E-17
   70.93800        1.3336047E-17
   71.09950        1.3365746E-17
   71.26100        1.3400235E-17
   71.42250        1.3416893E-17
   71.58400        1.3404772E-17
   71.74550        1.3372269E-17
   71.90700        1.3341458E-17
   72.06850        1.3333082E-17
   72.23000        1.3352516E-17
   72.39150        1.3386289E-17
   72.55300        1.3411440E-17
   72.71450        1.3411208E-17
   72.87600        1.3386333E-17
   73.03750        1.3354322E-17
   73.19900        1.3337340E-17
   73.36050        1.3347036E-17
   73.52200        1.3376650E-17
   73.68350        1.3405726E-17
   73.84500        1.3414228E-17
   74.00650        1.3396397E-17
   74.16800        1.3364833E-17
   74.32950        1.3341963E-17
   74.49100        1.3344770E-17
   74.65250        1.3373380E-17
   74.81400        1.3411311E-17
   74.97550        1.3437014E-17
   75.13700        1.3438552E-17
   75.29850        1.3421297E-17
   75.46000        1.3403603E-17
   75.62150        1.3403757E-17
   75.78300        1.3427316E-17
   75.94450        1.3463469E-17
   76.10600        1.3492629E-17
   76.26750        1.3499845E-17
   76.42900        1.3484829E-17
   76.59050        1.3461934E-17
   76.75200        1.3450355E-17
   76.91350        1.3461293E-17
   77.07500        1.3490658E-17
   77.23650        1.3522113E-17
   77.39800        1.3538286E-17
   77.55950        1.3532566E-17
   77.72100        1.3513461E-17
   77.88250        1.3498567E-17
   78.04400        1.3502313E-17
   78.20550        1.3525958E-17
   78.36700        1.3556744E-17
   78.52850        1.3576738E-17
   78.69000        1.3575204E-17
   78.85150        1.3556008E-17
   79.01300        1.3534988E-17
   79.17450        1.3529198E-17
   79.33600        1.3545350E-17
   79.49750        1.3575327E-17
   79.65900        1.3601711E-17
   79.82050        1.3609484E-17
   79.98200        1.3595973E-17
   80.14350        1.3572426E-17
   80.30500        1.3556240E-17
   80.46650        1.3559159E-17
   80.62800        1.3579304E-17
   80.78950        1.3602424E-17
   80.95100        1.3611617E-17
   81.11250        1.3599038E-17
   81.27400        1.3571624E-17
   81.43550        1.3546816E-17
   81.59700        1.3541016E-17
   81.75850        1.3558596E-17
   81.92000        1.3588938E-17
   82.08150        1.3613533E-17
   82.24300        1.3618307E-17
   82.40450        1.3602846E-17
   82.56600        1.3580363E-17
   82.72750        1.3568511E-17
   82.88900        1.3577315E-17
   83.05050        1.3602388E-17
   83.21200        1.3627897E-17
   83.37350        1.3637272E-17
   83.53500        1.3624431E-17
   83.69650        1.3598074E-17
   83.85800        1.3576151E-17
   84.01950        1.3574123E-17
   84.18100        1.3594702E-17
   84.34250        1.3625943E-17
   84.50400        1.3649086E-17
   84.66550        1.3651088E-17
   84.82700        1.3633417E-17
   84.98850        1.3611042E-17
   85.15000        1.3602182E-17
   85.31150        1.3615758E-17
   85.47300        1.3645173E-17
   85.63450        1.3672787E-17
   85.79600        1.3682040E-17
   85.95750        1.3668968E-17
   86.11900        1.3645144E-17
   86.28050        1.3629990E-17
   86.44200        1.3637600E-17
   86.60350        1.3667085E-17
   86.76500        1.3703025E-17
   86.92650        1.3725784E-17
   87.08800        1.3724703E-17
   87.24950        1.3705226E-17
   87.41100        1.3685105E-17
   87.57250        1.3682171E-17
   87.73400        1.3701958E-17
   87.89550        1.3733699E-17
   88.05700        1.3757636E-17
   88.21850        1.3758781E-17
   88.38000        1.3737637E-17
   88.54150        1.3710254E-17
   88.70300        1.3697384E-17
   88.86450        1.3710191E-17
   89.02600        1.3742455E-17
   89.18750        1.3774748E-17
   89.34900        1.3787711E-17
   89.51050        1.3775292E-17
   89.67200        1.3748787E-17
   89.83350        1.3728963E-17
   89.99500        1.3731697E-17
   90.15650        1.3757042E-17
   90.31800        1.3789223E-17
   90.47950        1.3807542E-17
   90.64100        1.3800721E-17
   90.80250        1.3774864E-17
   90.96400        1.3749582E-17
   91.12550        1.3744771E-17
   91.28700        1.3766954E-17
   91.44850        1.3804529E-17
   91.61000        1.3835391E-17
   91.77150        1.3841877E-17
   91.93300        1.3822824E-17
   92.09450        1.3794309E-17
   92.25600        1.3778438E-17
   92.41750        1.3787930E-17
   92.57900        1.3817243E-17
   92.74050        1.3846454E-17
   92.90200        1.3855211E-17
   93.06350        1.3837043E-17
   93.22500        1.3804142E-17
   93.38650        1.3779213E-17
   93.54800        1.3780046E-17
   93.70950        1.3807417E-17
   93.87100        1.3844605E-17
   94.03250        1.3868811E-17
   94.19400        1.3866627E-17
   94.35550        1.3843001E-17
   94.51700        1.3817610E-17
   94.67850        1.3811142E-17
   94.84000        1.3830871E-17
   95.00150        1.3865469E-17
   95.16300        1.3892765E-17
   95.32450        1.3895195E-17
   95.48600        1.3872207E-17
   95.64750        1.3840872E-17
   95.80900        1.3824180E-17
   95.97050        1.3835195E-17
   96.13200        1.3868121E-17
   96.29350        1.3902468E-17
   96.45500        1.3917256E-17
   96.61650        1.3905364E-17
   96.77800        1.3878084E-17
   96.93950        1.3856968E-17
   97.10100        1.3858839E-17
   97.26250        1.3884359E-17
   97.42400        1.3917888E-17
   97.58550        1.3938460E-17
   97.74700        1.3934202E-17
   97.90850        1.3910405E-17
   98.07000        1.3885949E-17
   98.23150        1.3880521E-17
   98.39300        1.3901260E-17
   98.55450        1.3937760E-17
   98.71600        1.3968877E-17
   98.87750        1.3976891E-17
   99.03900        1.3959399E-17
   99.20050        1.3930828E-17
   99.36200        1.3912432E-17
   99.52350        1.3917608E-17
   99.68500        1.3942688E-17
   99.84650        1.3969568E-17
   100.0080        1.3978408E-17
   100.1695        1.3961599E-17
   100.3310        1.3929356E-17
   100.4925        1.3902947E-17
   100.6540        1.3900281E-17
   100.8155        1.3923688E-17
   100.9770        1.3958337E-17
   101.1385        1.3982251E-17
   101.3000        1.3981070E-17
   101.4615        1.3957571E-17
   101.6230        1.3929551E-17
   101.7845        1.3917600E-17
   101.9460        1.3931004E-17
   102.1075        1.3961407E-17
   102.2690        1.3988613E-17
   102.4305        1.3994614E-17
   102.5920        1.3976242E-17
   102.7535        1.3947638E-17
   102.9150        1.3930716E-17
   103.0765        1.3940177E-17
   103.2380        1.3973410E-17
   103.3995        1.4012191E-17
   103.5610        1.4034992E-17
   103.7225        1.4031427E-17
   103.8840        1.4008951E-17
   104.0455        1.3987350E-17
   104.2070        1.3985017E-17
   104.3685        1.4006451E-17
   104.5300        1.4039464E-17
   104.6915        1.4063753E-17
   104.8530        1.4064878E-17
   105.0145        1.4044183E-17
   105.1760        1.4018073E-17
   105.3375        1.4007091E-17
   105.4990        1.4022086E-17
   105.6605        1.4056717E-17
   105.8220        1.4091501E-17
   105.9835        1.4106846E-17
   106.1450        1.4096311E-17
   106.3065        1.4070982E-17
   106.4680        1.4051807E-17
   106.6295        1.4055034E-17
   106.7910        1.4080821E-17
   106.9525        1.4113035E-17
   107.1140        1.4130508E-17
   107.2755        1.4122003E-17
   107.4370        1.4094335E-17
   107.5985        1.4067796E-17
   107.7600        1.4062047E-17
   107.9215        1.4082331E-17
   108.0830        1.4115715E-17
   108.2445        1.4139971E-17
   108.4060        1.4138906E-17
   108.5675        1.4113493E-17
   108.7290        1.4081160E-17
   108.8905        1.4063738E-17
   109.0520        1.4072412E-17
   109.2135        1.4100089E-17
   109.3750        1.4126478E-17
   109.5365        1.4132381E-17
   109.6980        1.4113246E-17
   109.8595        1.4082535E-17
   110.0210        1.4062514E-17
   110.1825        1.4068857E-17
   110.3440        1.4099658E-17
   110.5055        1.4136508E-17
   110.6670        1.4156875E-17
   110.8285        1.4149330E-17
   110.9900        1.4121121E-17
   111.1515        1.4092992E-17
   111.3130        1.4084866E-17
   111.4745        1.4102293E-17
   111.6360        1.4132900E-17
   111.7975        1.4155118E-17
   111.9590        1.4153160E-17
   112.1205        1.4128040E-17
   112.2820        1.4097145E-17
   112.4435        1.4082580E-17
   112.6050        1.4096130E-17
   112.7665        1.4131052E-17
   112.9280        1.4166404E-17
   113.0895        1.4181120E-17
   113.2510        1.4168227E-17
   113.4125        1.4139496E-17
   113.5740        1.4117200E-17
   113.7355        1.4118659E-17
   113.8970        1.4144231E-17
   114.0585        1.4177168E-17
   114.2200        1.4195483E-17
   114.3815        1.4187526E-17
   114.5430        1.4160295E-17
   114.7045        1.4134622E-17
   114.8660        1.4130621E-17
   115.0275        1.4153679E-17
   115.1890        1.4190785E-17
   115.3505        1.4219640E-17
   115.5120        1.4224061E-17
   115.6735        1.4204896E-17
   115.8350        1.4179004E-17
   115.9965        1.4167164E-17
   116.1580        1.4179557E-17
   116.3195        1.4208916E-17
   116.4810        1.4236007E-17
   116.6425        1.4243350E-17
   116.8040        1.4227513E-17
   116.9655        1.4201404E-17
   117.1270        1.4185155E-17
   117.2885        1.4192108E-17
   117.4500        1.4219610E-17
   117.6115        1.4250954E-17
   117.7730        1.4266923E-17
   117.9345        1.4258910E-17
   118.0960        1.4234556E-17
   118.2575        1.4212215E-17
   118.4190        1.4208210E-17
   118.5805        1.4225725E-17
   118.7420        1.4252868E-17