  -27.90000       -1.6790128E-18
  -27.73850       -1.6817367E-18
  -27.57700       -1.6856582E-18
  -27.41550       -1.6887954E-18
  -27.25400       -1.6900084E-18
  -27.09250       -1.6897004E-18
  -26.93100       -1.6894672E-18
  -26.76950       -1.6909322E-18
  -26.60800       -1.6945855E-18
  -26.44650       -1.6994028E-18
  -26.28500       -1.7035128E-18
  -26.12350       -1.7054489E-18
  -25.96200       -1.7051309E-18
  -25.80050       -1.7039233E-18
  -25.63900       -1.7037249E-18
  -25.47750       -1.7057127E-18
  -25.31600       -1.7095690E-18
  -25.15450       -1.7137201E-18
  -24.99300       -1.7164110E-18
  -24.83150       -1.7168971E-18
  -24.67000       -1.7159465E-18
  -24.50850       -1.7153109E-18
  -24.34700       -1.7165246E-18
  -24.18550       -1.7198491E-18
  -24.02400       -1.7240816E-18
  -23.86250       -1.7273735E-18
  -23.70100       -1.7284963E-18
  -23.53950       -1.7276921E-18
  -23.37800       -1.7265140E-18
  -23.21650       -1.7267637E-18
  -23.05500       -1.7292506E-18
  -22.89350       -1.7332293E-18
  -22.73200       -1.7369076E-18
  -22.57050       -1.7386735E-18
  -22.40900       -1.7382014E-18
  -22.24750       -1.7366748E-18
  -22.08600       -1.7359707E-18
  -21.92450       -1.7373671E-18
  -21.76300       -1.7406701E-18
  -21.60150       -1.7443585E-18
  -21.44000       -1.7466514E-18
  -21.27850       -1.7467530E-18
  -21.11700       -1.7454175E-18
  -20.95550       -1.7444437E-18
  -20.79400       -1.7454351E-18
  -20.63250       -1.7486828E-18
  -20.47100       -1.7529552E-18
  -20.30950       -1.7563170E-18
  -20.14800       -1.7574348E-18
  -19.98650       -1.7564568E-18
  -19.82500       -1.7548843E-18
  -19.66350       -1.7545336E-18
  -19.50200       -1.7563059E-18
  -19.34050       -1.7596005E-18
  -19.17900       -1.7627597E-18
  -19.01750       -1.7642133E-18
  -18.85600       -1.7635582E-18
  -18.69450       -1.7618457E-18
  -18.53300       -1.7608942E-18
  -18.37150       -1.7620881E-18
  -18.21000       -1.7654553E-18
  -18.04850       -1.7696419E-18
  -17.88700       -1.7728017E-18
  -17.72550       -1.7738078E-18
  -17.56400       -1.7729764E-18
  -17.40250       -1.7718159E-18
  -17.24100       -1.7719758E-18
  -17.07950       -1.7741115E-18
  -16.91800       -1.7774471E-18
  -16.75650       -1.7803173E-18
  -16.59500       -1.7813299E-18
  -16.43350       -1.7803293E-18
  -16.27200       -1.7785101E-18
  -16.11050       -1.7776188E-18
  -15.94900       -1.7788064E-18
  -15.78750       -1.7819046E-18
  -15.62600       -1.7855878E-18
  -15.46450       -1.7882754E-18
  -15.30300       -1.7891536E-18
  -15.14150       -1.7886600E-18
  -14.98000       -1.7881275E-18
  -14.81850       -1.7888610E-18
  -14.65700       -1.7912625E-18
  -14.49550       -1.7945636E-18
  -14.33400       -1.7973284E-18
  -14.17250       -1.7983980E-18
  -14.01100       -1.7976496E-18
  -13.84950       -1.7960908E-18
  -13.68800       -1.7952193E-18
  -13.52650       -1.7960571E-18
  -13.36500       -1.7984888E-18
  -13.20350       -1.8013361E-18
  -13.04200       -1.8031410E-18
  -12.88050       -1.8031466E-18
  -12.71900       -1.8018306E-18
  -12.55750       -1.8006225E-18
  -12.39600       -1.8009633E-18
  -12.23450       -1.8033302E-18
  -12.07300       -1.8068830E-18
  -11.91150       -1.8100056E-18
  -11.75000       -1.8114044E-18
  -11.58850       -1.8110377E-18
  -11.42700       -1.8102031E-18
  -11.26550       -1.8106812E-18
  -11.10400       -1.8134953E-18
  -10.94250       -1.8181291E-18
  -10.78100       -1.8227853E-18
  -10.61950       -1.8255409E-18
  -10.45800       -1.8256412E-18
  -10.29650       -1.8240255E-18
  -10.13500       -1.8226850E-18
  -9.973500       -1.8232752E-18
  -9.812000       -1.8259303E-18
  -9.650500       -1.8291387E-18
  -9.489000       -1.8307955E-18
  -9.327500       -1.8297152E-18
  -9.166000       -1.8265484E-18
  -9.004500       -1.8234241E-18
  -8.843000       -1.8225382E-18
  -8.681500       -1.8246508E-18
  -8.520000       -1.8285413E-18
  -8.358500       -1.8318204E-18
  -8.197000       -1.8325550E-18
  -8.035500       -1.8305776E-18
  -7.874000       -1.8275857E-18
  -7.712500       -1.8259600E-18
  -7.551000       -1.8271084E-18
  -7.389500       -1.8304775E-18
  -7.228000       -1.8339196E-18
  -7.066500       -1.8351759E-18
  -6.905000       -1.8334787E-18
  -6.743500       -1.8301599E-18
  -6.582000       -1.8278198E-18
  -6.420500       -1.8285878E-18
  -6.259000       -1.8326598E-18
  -6.097500       -1.8381262E-18
  -5.936000       -1.8422580E-18
  -5.774500       -1.8433817E-18
  -5.613000       -1.8420392E-18
  -5.451500       -1.8406067E-18
  -5.290000       -1.8416047E-18
  -5.128500       -1.8458728E-18
  -4.967000       -1.8519226E-18
  -4.805500       -1.8569316E-18
  -4.644000       -1.8587065E-18
  -4.482500       -1.8572304E-18
  -4.321000       -1.8546918E-18
  -4.159500       -1.8539599E-18
  -3.998000       -1.8565616E-18
  -3.836500       -1.8615944E-18
  -3.675000       -1.8663474E-18
  -3.513500       -1.8681990E-18
  -3.352000       -1.8664545E-18
  -3.190500       -1.8628273E-18
  -3.029000       -1.8602213E-18
  -2.867500       -1.8606913E-18
  -2.706000       -1.8640168E-18
  -2.544500       -1.8679043E-18
  -2.383000       -1.8696515E-18
  -2.221500       -1.8680830E-18
  -2.060000       -1.8643869E-18
  -1.898500       -1.8612873E-18
  -1.737000       -1.8611520E-18
  -1.575500       -1.8643741E-18
  -1.414000       -1.8691352E-18
  -1.252500       -1.8726726E-18
  -1.091000       -1.8731596E-18
 -0.9295000       -1.8709109E-18
 -0.7680000       -1.8681132E-18
 -0.6065000       -1.8672947E-18
 -0.4450000       -1.8695922E-18
 -0.2835000       -1.8739924E-18
 -0.1220000       -1.8780571E-18
  3.9500002E-02   -1.8796236E-18
  0.2010000       -1.8783109E-18
  0.3625000       -1.8757838E-18
  0.5240000       -1.8746070E-18
  0.6855000       -1.8764646E-18
  0.8470000       -1.8809874E-18
   1.008500       -1.8859792E-18
   1.170000       -1.8888868E-18
   1.331500       -1.8885005E-18
   1.493000       -1.8857094E-18
   1.654500       -1.8828380E-18
   1.816000       -1.8820243E-18
   1.977500       -1.8837744E-18
   2.139000       -1.8866581E-18
   2.300500       -1.8883388E-18
   2.462000       -1.8872304E-18
   2.623500       -1.8836586E-18
   2.785000       -1.8797260E-18
   2.946500       -1.8779471E-18
   3.108000       -1.8795818E-18
   3.269500       -1.8837945E-18
   3.431000       -1.8882275E-18
   3.592500       -1.8905978E-18
   3.754000       -1.8902144E-18
   3.915500       -1.8883803E-18
   4.077000       -1.8874123E-18
   4.238500       -1.8889803E-18
   4.400000       -1.8929317E-18
   4.561500       -1.8973906E-18
   4.723000       -1.9000359E-18
   4.884500       -1.8996699E-18
   5.046000       -1.8970058E-18
   5.207500       -1.8941849E-18
   5.369000       -1.8933660E-18
   5.530500       -1.8953247E-18
   5.692000       -1.8989742E-18
   5.853500       -1.9021018E-18
   6.015000       -1.9028500E-18
   6.176500       -1.9009663E-18
   6.338000       -1.8980007E-18
   6.499500       -1.8962841E-18
   6.661000       -1.8973629E-18
   6.822500       -1.9009349E-18
   6.984000       -1.9050453E-18
   7.145500       -1.9074284E-18
   7.307000       -1.9071044E-18
   7.468500       -1.9050966E-18
   7.630000       -1.9037537E-18
   7.791500       -1.9051010E-18
   7.953000       -1.9093731E-18
   8.114500       -1.9147854E-18
   8.276000       -1.9187215E-18
   8.437500       -1.9195340E-18
   8.599000       -1.9176921E-18
   8.760500       -1.9154548E-18
   8.922000       -1.9152829E-18
   9.083500       -1.9181088E-18
   9.245000       -1.9226769E-18
   9.406500       -1.9264484E-18
   9.568000       -1.9274328E-18
   9.729500       -1.9256504E-18
   9.891000       -1.9231707E-18
   10.05250       -1.9226744E-18
   10.21400       -1.9255346E-18
   10.37550       -1.9307990E-18
   10.53700       -1.9357890E-18
   10.69850       -1.9379173E-18
   10.86000       -1.9364633E-18
   11.02150       -1.9330537E-18
   11.18300       -1.9305180E-18
   11.34450       -1.9309076E-18
   11.50600       -1.9340736E-18
   11.66750       -1.9377971E-18
   11.82900       -1.9393884E-18
   11.99050       -1.9376218E-18
   12.15200       -1.9336468E-18
   12.31350       -1.9302293E-18
   12.47500       -1.9298486E-18
   12.63650       -1.9329666E-18
   12.79800       -1.9376751E-18
   12.95950       -1.9409768E-18
   13.12100       -1.9408186E-18
   13.28250       -1.9374681E-18
   13.44400       -1.9332874E-18
   13.60550       -1.9310674E-18
   13.76700       -1.9320989E-18
   13.92850       -1.9353243E-18
   14.09000       -1.9381435E-18
   14.25150       -1.9382957E-18
   14.41300       -1.9354893E-18
   14.57450       -1.9316595E-18
   14.73600       -1.9296509E-18
   14.89750       -1.9312502E-18
   15.05900       -1.9359393E-18
   15.22050       -1.9412506E-18
   15.38200       -1.9444812E-18
   15.54350       -1.9445536E-18
   15.70500       -1.9427110E-18
   15.86650       -1.9415610E-18
   16.02800       -1.9431440E-18
   16.18950       -1.9474146E-18
   16.35100       -1.9522306E-18
   16.51250       -1.9548733E-18
   16.67400       -1.9540184E-18
   16.83550       -1.9507034E-18
   16.99700       -1.9475866E-18
   17.15850       -1.9470258E-18
   17.32000       -1.9493996E-18
   17.48150       -1.9528764E-18
   17.64300       -1.9547934E-18
   17.80450       -1.9536252E-18
   17.96600       -1.9501108E-18
   18.12750       -1.9467539E-18
   18.28900       -1.9460694E-18
   18.45050       -1.9488441E-18
   18.61200       -1.9536364E-18
   18.77350       -1.9578472E-18
   18.93500       -1.9595642E-18
   19.09650       -1.9588863E-18
   19.25800       -1.9578230E-18
   19.41950       -1.9588495E-18
   19.58100       -1.9631333E-18
   19.74250       -1.9696364E-18
   19.90400       -1.9757277E-18
   20.06550       -1.9789148E-18
   20.22700       -1.9785070E-18
   20.38850       -1.9760573E-18
   20.55000       -1.9742423E-18
   20.71150       -1.9749655E-18
   20.87300       -1.9780289E-18
   21.03450       -1.9813201E-18
   21.19600       -1.9823861E-18
   21.35750       -1.9802487E-18
   21.51900       -1.9761572E-18
   21.68050       -1.9727370E-18
   21.84200       -1.9721497E-18
   22.00350       -1.9745932E-18
   22.16500       -1.9782078E-18
   22.32650       -1.9804180E-18
   22.48800       -1.9797261E-18
   22.64950       -1.9766997E-18
   22.81100       -1.9734904E-18
   22.97250       -1.9722703E-18
   23.13400       -1.9737011E-18
   23.29550       -1.9764912E-18
   23.45700       -1.9783431E-18
   23.61850       -1.9776404E-18
   23.78000       -1.9746830E-18
   23.94150       -1.9715562E-18
   24.10300       -1.9706908E-18
   24.26450       -1.9731068E-18
   24.42600       -1.9776451E-18
   24.58750       -1.9817777E-18
   24.74900       -1.9834325E-18
   24.91050       -1.9824961E-18
   25.07200       -1.9808521E-18
   25.23350       -1.9809152E-18
   25.39500       -1.9837559E-18
   25.55650       -1.9882386E-18
   25.71800       -1.9918433E-18
   25.87950       -1.9925439E-18
   26.04100       -1.9903270E-18
   26.20250       -1.9872115E-18
   26.36400       -1.9857951E-18
   26.52550       -1.9874207E-18
   26.68700       -1.9912787E-18
   26.84850       -1.9950411E-18
   27.01000       -1.9965326E-18
   27.17150       -1.9952581E-18
   27.33300       -1.9927304E-18
   27.49450       -1.9913850E-18
   27.65600       -1.9928338E-18
   27.81750       -1.9966812E-18
   27.97900       -2.0007561E-18
   28.14050       -2.0026314E-18
   28.30200       -2.0013796E-18
   28.46350       -1.9983015E-18
   28.62500       -1.9960466E-18
   28.78650       -1.9966998E-18
   28.94800       -2.0002075E-18
   29.10950       -2.0043444E-18
   29.27100       -2.0063231E-18
   29.43250       -2.0048755E-18
   29.59400       -2.0012400E-18
   29.75550       -1.9982781E-18
   29.91700       -1.9983745E-18
   30.07850       -2.0016971E-18
   30.24000       -2.0061049E-18
   30.40150       -2.0087510E-18
   30.56300       -2.0081950E-18
   30.72450       -2.0054884E-18
   30.88600       -2.0034507E-18
   31.04750       -2.0046497E-18
   31.20900       -2.0095129E-18
   31.37050       -2.0159235E-18
   31.53200       -2.0206070E-18
   31.69350       -2.0213560E-18
   31.85500       -2.0185575E-18
   32.01650       -2.0149199E-18
   32.17800       -2.0135547E-18
   32.33950       -2.0157006E-18
   32.50100       -2.0197401E-18
   32.66250       -2.0222862E-18
   32.82400       -2.0206589E-18
   32.98550       -2.0149743E-18
   33.14700       -2.0082554E-18
   33.30850       -2.0044028E-18
   33.47000       -2.0054649E-18
   33.63150       -2.0102019E-18
   33.79300       -2.0150142E-18
   33.95450       -2.0165627E-18
   34.11600       -2.0141705E-18
   34.27750       -2.0102780E-18
   34.43900       -2.0086404E-18
   34.60050       -2.0115854E-18
   34.76200       -2.0183151E-18
   34.92350       -2.0254464E-18
   35.08500       -2.0293747E-18
   35.24650       -2.0287783E-18
   35.40800       -2.0254946E-18
   35.56950       -2.0231967E-18
   35.73100       -2.0247959E-18
   35.89250       -2.0303777E-18
   36.05400       -2.0370950E-18
   36.21550       -2.0411184E-18
   36.37700       -2.0403103E-18
   36.53850       -2.0357430E-18
   36.70000       -2.0309766E-18
   36.86150       -2.0295600E-18
   37.02300       -2.0325159E-18
   37.18450       -2.0375969E-18
   37.34600       -2.0408603E-18
   37.50750       -2.0394798E-18
   37.66900       -2.0338041E-18
   37.83050       -2.0271939E-18
   37.99200       -2.0237160E-18
   38.15350       -2.0252957E-18
   38.31500       -2.0303438E-18
   38.47650       -2.0348465E-18
   38.63800       -2.0351908E-18
   38.79950       -2.0307433E-18
   38.96100       -2.0243647E-18
   39.12250       -2.0204809E-18
   39.28400       -2.0220364E-18
   39.44550       -2.0284377E-18
   39.60700       -2.0359194E-18
   39.76850       -2.0401119E-18
   39.93000       -2.0390577E-18
   40.09150       -2.0345946E-18
   40.25300       -2.0311000E-18
   40.41450       -2.0324336E-18
   40.57600       -2.0391905E-18
   40.73750       -2.0481827E-18
   40.89900       -2.0545516E-18
   41.06050       -2.0550779E-18
   41.22200       -2.0504211E-18
   41.38350       -2.0447133E-18
   41.54500       -2.0427269E-18
   41.70650       -2.0465383E-18
   41.86800       -2.0540218E-18
   42.02950       -2.0602840E-18
   42.19100       -2.0610971E-18
   42.35250       -2.0559458E-18
   42.51400       -2.0485078E-18
   42.67550       -2.0441709E-18
   42.83700       -2.0462839E-18
   42.99850       -2.0537542E-18
   43.16000       -2.0617123E-18
   43.32150       -2.0648556E-18
   43.48300       -2.0611744E-18
   43.64450       -2.0534285E-18
   43.80600       -2.0472673E-18
   43.96750       -2.0472383E-18
   44.12900       -2.0534841E-18
   44.29050       -2.0614987E-18
   44.45200       -2.0651939E-18
   44.61350       -2.0612015E-18
   44.77500       -2.0514118E-18
   44.93650       -2.0418720E-18
   45.09800       -2.0386817E-18
   45.25950       -2.0436876E-18
   45.42100       -2.0530507E-18
   45.58250       -2.0598574E-18
   45.74400       -2.0590523E-18
   45.90550       -2.0512154E-18
   46.06700       -2.0423914E-18
   46.22850       -2.0399258E-18
   46.39000       -2.0471746E-18
   46.55150       -2.0608696E-18
   46.71300       -2.0731752E-18
   46.87450       -2.0771090E-18
   47.03600       -2.0715212E-18
   47.19750       -2.0619871E-18
   47.35900       -2.0568566E-18
   47.52050       -2.0612228E-18
   47.68200       -2.0731572E-18
   47.84350       -2.0849573E-18
   48.00500       -2.0885889E-18
   48.16650       -2.0814433E-18
   48.32800       -2.0683087E-18
   48.48950       -2.0580953E-18
   48.65100       -2.0575944E-18
   48.81250       -2.0666748E-18
   48.97400       -2.0783465E-18
   49.13550       -2.0836967E-18
   49.29700       -2.0782431E-18
   49.45850       -2.0651921E-18
   49.62000       -2.0532668E-18
   49.78150       -2.0505840E-18
   49.94300       -2.0588941E-18
   50.10450       -2.0722998E-18
   50.26600       -2.0814207E-18
   50.42750       -2.0800943E-18
   50.58900       -2.0698216E-18
   50.75050       -2.0587221E-18
   50.91200       -2.0557099E-18
   51.07350       -2.0640508E-18
   51.23500       -2.0789568E-18
   51.39650       -2.0909428E-18
   51.55800       -2.0925440E-18
   51.71950       -2.0835863E-18
   51.88100       -2.0712698E-18
   52.04250       -2.0650411E-18
   52.20400       -2.0699101E-18
   52.36550       -2.0829458E-18
   52.52700       -2.0953939E-18
   52.68850       -2.0988910E-18
   52.85000       -2.0913872E-18
   53.01150       -2.0786009E-18
   53.17300       -2.0699901E-18
   53.33450       -2.0720624E-18
   53.49600       -2.0837362E-18
   53.65750       -2.0970385E-18
   53.81900       -2.1026838E-18
   53.98050       -2.0966239E-18
   54.14200       -2.0829156E-18
   54.30350       -2.0708640E-18
   54.46500       -2.0684441E-18
   54.62650       -2.0766965E-18
   54.78800       -2.0890831E-18
   54.94950       -2.0962268E-18
   55.11100       -2.0926168E-18
   55.27250       -2.0804800E-18
   55.43400       -2.0681362E-18
   55.59550       -2.0640830E-18
   55.75700       -2.0710427E-18
   55.91850       -2.0841486E-18
   56.08000       -2.0944441E-18
   56.24150       -2.0951629E-18
   56.40300       -2.0863751E-18
   56.56450       -2.0748186E-18
   56.72600       -2.0691348E-18
   56.88750       -2.0738793E-18
   57.04900       -2.0864597E-18
   57.21050       -2.0990616E-18
   57.37200       -2.1041444E-18
   57.53350       -2.0996725E-18
   57.69500       -2.0904438E-18
   57.85650       -2.0846391E-18
   58.01800       -2.0880113E-18
   58.17950       -2.0998075E-18
   58.34100       -2.1132515E-18
   58.50250       -2.1202324E-18
   58.66400       -2.1168927E-18
   58.82550       -2.1062326E-18
   58.98700       -2.0959487E-18
   59.14850       -2.0930784E-18
   59.31000       -2.0991776E-18
   59.47150       -2.1093641E-18
   59.63300       -2.1158223E-18
   59.79450       -2.1133029E-18
   59.95600       -2.1027856E-18
   60.11750       -2.0908051E-18
   60.27900       -2.0849350E-18
   60.44050       -2.0885783E-18
   60.60200       -2.0986403E-18
   60.76350       -2.1076682E-18
   60.92500       -2.1089712E-18
   61.08650       -2.1012187E-18
   61.24800       -2.0893689E-18
   61.40950       -2.0812857E-18
   61.57100       -2.0823848E-18
   61.73250       -2.0919667E-18
   61.89400       -2.1037567E-18
   62.05550       -2.1102455E-18
   62.21700       -2.1078278E-18
   62.37850       -2.0992223E-18
   62.54000       -2.0915222E-18
   62.70150       -2.0912536E-18
   62.86300       -2.0998309E-18
   63.02450       -2.1125328E-18
   63.18600       -2.1216827E-18
   63.34750       -2.1218552E-18
   63.50900       -2.1135430E-18
   63.67050       -2.1028093E-18
   63.83200       -2.0971702E-18
   63.99350       -2.1005393E-18
   64.15500       -2.1106514E-18
   64.31650       -2.1207143E-18
   64.47800       -2.1241357E-18
   64.63950       -2.1190694E-18
   64.80100       -2.1096636E-18
   64.96250       -2.1031489E-18
   65.12400       -2.1047906E-18
   65.28550       -2.1141915E-18
   65.44700       -2.1254941E-18
   65.60850       -2.1313522E-18
   65.77000       -2.1279366E-18
   65.93150       -2.1175408E-18
   66.09300       -2.1069998E-18
   66.25450       -2.1030054E-18
   66.41600       -2.1075489E-18
   66.57750       -2.1166139E-18
   66.73900       -2.1230314E-18
   66.90050       -2.1215104E-18
   67.06200       -2.1123769E-18
   67.22350       -2.1014211E-18
   67.38500       -2.0959247E-18
   67.54650       -2.0995844E-18
   67.70800       -2.1098741E-18
   67.86950       -2.1197341E-18
   68.03100       -2.1224789E-18
   68.19250       -2.1165192E-18
   68.35400       -2.1065612E-18
   68.51550       -2.1003861E-18
   68.67700       -2.1034217E-18
   68.83850       -2.1149071E-18
   69.00000       -2.1283583E-18
   69.16150       -2.1360479E-18
   69.32300       -2.1343588E-18
   69.48450       -2.1262574E-18
   69.64600       -2.1191368E-18
   69.80750       -2.1195455E-18
   69.96900       -2.1285071E-18
   70.13050       -2.1407213E-18
   70.29200       -2.1482220E-18
   70.45350       -2.1459427E-18
   70.61500       -2.1353179E-18
   70.77650       -2.1233927E-18
   70.93800       -2.1180199E-18
   71.09950       -2.1224578E-18
   71.26100       -2.1331257E-18
   71.42250       -2.1421130E-18
   71.58400       -2.1427119E-18
   71.74550       -2.1341175E-18
   71.90700       -2.1219819E-18
   72.06850       -2.1144395E-18
   72.23000       -2.1163755E-18
   72.39150       -2.1259789E-18
   72.55300       -2.1360134E-18
   72.71450       -2.1389112E-18
   72.87600       -2.1320944E-18
   73.03750       -2.1197988E-18
   73.19900       -2.1101231E-18
   73.36050       -2.1094042E-18
   73.52200       -2.1178729E-18
   73.68350       -2.1295868E-18
   73.84500       -2.1366284E-18
   74.00650       -2.1345971E-18
   74.16800       -2.1255744E-18
   74.32950       -2.1165575E-18
   74.49100       -2.1145050E-18
   74.65250       -2.1214656E-18
   74.81400       -2.1331683E-18
   74.97550       -2.1420196E-18
   75.13700       -2.1423968E-18
   75.29850       -2.1345263E-18
   75.46000       -2.1242788E-18
   75.62150       -2.1190485E-18
   75.78300       -2.1226373E-18
   75.94450       -2.1326964E-18
   76.10600       -2.1424875E-18
   76.26750       -2.1456664E-18
   76.42900       -2.1407114E-18
   76.59050       -2.1318994E-18
   76.75200       -2.1262032E-18
   76.91350       -2.1283707E-18
   77.07500       -2.1376758E-18
   77.23650       -2.1485721E-18
   77.39800       -2.1546787E-18
   77.55950       -2.1532210E-18
   77.72100       -2.1468369E-18
   77.88250       -2.1415700E-18
   78.04400       -2.1425640E-18
   78.20550       -2.1504740E-18
   78.36700       -2.1610693E-18
   78.52850       -2.1681978E-18
   78.69000       -2.1679802E-18
   78.85150       -2.1613334E-18
   79.01300       -2.1531509E-18
   79.17450       -2.1488295E-18
   79.33600       -2.1505811E-18
   79.49750       -2.1560523E-18
   79.65900       -2.1601375E-18
   79.82050       -2.1586593E-18
   79.98200       -2.1513448E-18
   80.14350       -2.1420417E-18
   80.30500       -2.1360628E-18
   80.46650       -2.1365465E-18
   80.62800       -2.1423761E-18
   80.78950       -2.1490407E-18
   80.95100       -2.1517571E-18
   81.11250       -2.1486602E-18
   81.27400       -2.1419040E-18
   81.43550       -2.1360194E-18
   81.59700       -2.1347400E-18
   81.75850       -2.1385028E-18
   81.92000       -2.1442755E-18
   82.08150       -2.1477302E-18
   82.24300       -2.1462098E-18
   82.40450       -2.1404831E-18
   82.56600       -2.1341903E-18
   82.72750       -2.1314321E-18
   82.88900       -2.1341194E-18
   83.05050       -2.1408088E-18
   83.21200       -2.1477178E-18
   83.37350       -2.1512259E-18
   83.53500       -2.1501933E-18
   83.69650       -2.1465957E-18
   83.85800       -2.1441003E-18
   84.01950       -2.1455816E-18
   84.18100       -2.1512294E-18
   84.34250       -2.1584639E-18
   84.50400       -2.1636605E-18
   84.66550       -2.1644907E-18
   84.82700       -2.1613737E-18
   84.98850       -2.1571315E-18
   85.15000       -2.1551194E-18
   85.31150       -2.1570823E-18
   85.47300       -2.1620917E-18
   85.63450       -2.1671907E-18
   85.79600       -2.1692900E-18
   85.95750       -2.1671173E-18
   86.11900       -2.1620181E-18
   86.28050       -2.1571489E-18
   86.44200       -2.1555289E-18
   86.60350       -2.1581457E-18
   86.76500       -2.1633164E-18
   86.92650       -2.1677660E-18
   87.08800       -2.1687838E-18
   87.24950       -2.1660727E-18
   87.41100       -2.1620191E-18
   87.57250       -2.1601338E-18
   87.73400       -2.1626161E-18
   87.89550       -2.1686978E-18
   88.05700       -2.1749442E-18
   88.21850       -2.1774407E-18
   88.38000       -2.1744419E-18
   88.54150       -2.1676605E-18
   88.70300       -2.1612234E-18
   88.86450       -2.1589246E-18
   89.02600       -2.1616326E-18
   89.18750       -2.1666774E-18
   89.34900       -2.1697278E-18
   89.51050       -2.1679043E-18
   89.67200       -2.1619707E-18
   89.83350       -2.1559913E-18
   89.99500       -2.1545733E-18
   90.15650       -2.1595345E-18
   90.31800       -2.1683775E-18
   90.47950       -2.1757634E-18
   90.64100       -2.1771067E-18
   90.80250       -2.1718138E-18
   90.96400       -2.1638302E-18
   91.12550       -2.1589865E-18
   91.28700       -2.1609148E-18
   91.44850       -2.1684056E-18
   91.61000       -2.1761463E-18
   91.77150       -2.1784519E-18
   91.93300       -2.1733949E-18
   92.09450       -2.1643820E-18
   92.25600       -2.1579227E-18
   92.41750       -2.1590688E-18
   92.57900       -2.1677358E-18
   92.74050       -2.1785840E-18
   92.90200       -2.1846398E-18
   93.06350       -2.1821765E-18
   93.22500       -2.1733958E-18
   93.38650       -2.1649718E-18
   93.54800       -2.1634049E-18
   93.70950       -2.1704254E-18
   93.87100       -2.1817184E-18
   94.03250       -2.1899106E-18
   94.19400       -2.1897431E-18
   94.35550       -2.1817737E-18
   94.51700       -2.1719819E-18
   94.67850       -2.1675563E-18
   94.84000       -2.1718392E-18
   95.00150       -2.1819738E-18
   95.16300       -2.1909088E-18
   95.32450       -2.1923446E-18
   95.48600       -2.1851477E-18
   95.64750       -2.1741578E-18
   95.80900       -2.1668172E-18
   95.97050       -2.1680009E-18
   96.13200       -2.1766757E-18
   96.29350       -2.1867121E-18
   96.45500       -2.1912397E-18
   96.61650       -2.1874688E-18
   96.77800       -2.1785834E-18
   96.93950       -2.1714068E-18
   97.10100       -2.1715088E-18
   97.26250       -2.1792367E-18
   97.42400       -2.1894867E-18
   97.58550       -2.1953566E-18
   97.74700       -2.1930461E-18
   97.90850       -2.1844986E-18
   98.07000       -2.1759424E-18
   98.23150       -2.1734386E-18
   98.39300       -2.1786465E-18
   98.55450       -2.1877951E-18
   98.71600       -2.1944978E-18
   98.87750       -2.1943263E-18
   99.03900       -2.1878816E-18
   99.20050       -2.1802465E-18
   99.36200       -2.1773001E-18
   99.52350       -2.1815538E-18
   99.68500       -2.1904367E-18
   99.84650       -2.1981580E-18
   100.0080       -2.1997706E-18
   100.1695       -2.1945708E-18
   100.3310       -2.1865024E-18
   100.4925       -2.1813439E-18
   100.6540       -2.1826738E-18
   100.8155       -2.1894125E-18
   100.9770       -2.1966288E-18
   101.1385       -2.1990297E-18
   101.3000       -2.1946688E-18
   101.4615       -2.1862969E-18
   101.6230       -2.1794325E-18
   101.7845       -2.1785412E-18
   101.9460       -2.1839946E-18
   102.1075       -2.1918967E-18
   102.2690       -2.1968283E-18
   102.4305       -2.1955762E-18
   102.5920       -2.1892851E-18
   102.7535       -2.1826041E-18
   102.9150       -2.1804615E-18
   103.0765       -2.1846915E-18
   103.2380       -2.1927861E-18
   103.3995       -2.1996006E-18
   103.5610       -2.2008304E-18
   103.7225       -2.1959327E-18
   103.8840       -2.1885187E-18
   104.0455       -2.1839498E-18
   104.2070       -2.1857127E-18
   104.3685       -2.1930256E-18
   104.5300       -2.2013493E-18
   104.6915       -2.2055082E-18
   104.8530       -2.2033002E-18
   105.0145       -2.1970517E-18
   105.1760       -2.1919922E-18
   105.3375       -2.1925650E-18
   105.4990       -2.1992803E-18
   105.6605       -2.2083419E-18
   105.8220       -2.2142945E-18
   105.9835       -2.2138143E-18
   106.1450       -2.2079578E-18
   106.3065       -2.2013224E-18
   106.4680       -2.1987650E-18
   106.6295       -2.2020160E-18
   106.7910       -2.2085464E-18
   106.9525       -2.2134150E-18
   107.1140       -2.2127313E-18
   107.2755       -2.2063291E-18
   107.4370       -2.1978474E-18
   107.5985       -2.1922292E-18
   107.7600       -2.1923738E-18
   107.9215       -2.1972415E-18
   108.0830       -2.2026972E-18
   108.2445       -2.2044926E-18
   108.4060       -2.2012912E-18
   108.5675       -2.1955950E-18
   108.7290       -2.1919422E-18
   108.8905       -2.1936559E-18
   109.0520       -2.2004723E-18
   109.2135       -2.2087170E-18
   109.3750       -2.2138865E-18
   109.5365       -2.2137630E-18
   109.6980       -2.2098368E-18
   109.8595       -2.2060729E-18
   110.0210       -2.2059648E-18
   110.1825       -2.2100390E-18
   110.3440       -2.2155725E-18
   110.5055       -2.2186361E-18
   110.6670       -2.2169379E-18
   110.8285       -2.2114169E-18
   110.9900       -2.2055305E-18
   111.1515       -2.2027975E-18
   111.3130       -2.2043726E-18
   111.4745       -2.2083578E-18
   111.6360       -2.2112922E-18
   111.7975       -2.2107167E-18
   111.9590       -2.2069373E-18
   112.1205       -2.2027371E-18
   112.2820       -2.2012802E-18
   112.4435       -2.2037814E-18
   112.6050       -2.2086558E-18
   112.7665       -2.2127427E-18
   112.9280       -2.2136445E-18
   113.0895       -2.2114165E-18
   113.2510       -2.2083623E-18
   113.4125       -2.2071677E-18
   113.5740       -2.2088514E-18
   113.7355       -2.2121064E-18
   113.8970       -2.2144547E-18
   114.0585       -2.2142233E-18
   114.2200       -2.2117815E-18
   114.3815       -2.2091424E-18
   114.5430       -2.2083561E-18
   114.7045       -2.2100008E-18
   114.8660       -2.2129042E-18
   115.0275       -2.2151982E-18
   115.1890       -2.2157943E-18
   115.3505       -2.2151057E-18
   115.5120       -2.2145306E-18
   115.6735       -2.2152039E-18
   115.8350       -2.2170608E-18
   115.9965       -2.2189387E-18
   116.1580       -2.2195766E-18
   116.3195       -2.2186657E-18
   116.4810       -2.2170957E-18
   116.6425       -2.2162154E-18
   116.8040       -2.2167229E-18
   116.9655       -2.2180997E-18
   117.1270       -2.2190762E-18
   117.2885       -2.2187455E-18
   117.4500       -2.2174150E-18
   117.6115       -2.2164515E-18
   117.7730       -2.2171941E-18
   117.9345       -2.2197807E-18
   118.0960       -2.2228585E-18
   118.2575       -2.2244982E-18
   118.4190       -2.2236565E-18
   118.5805       -2.2210587E-18
   118.7420       -2.2187526E-18