  -27.90000        5.9742338E-18
  -27.73850        5.9761797E-18
  -27.57700        5.9788850E-18
  -27.41550        5.9811565E-18
  -27.25400        5.9828352E-18
  -27.09250        5.9846765E-18
  -26.93100        5.9872946E-18
  -26.76950        5.9903688E-18
  -26.60800        5.9929661E-18
  -26.44650        5.9945862E-18
  -26.28500        5.9957355E-18
  -26.12350        5.9973916E-18
  -25.96200        5.9999401E-18
  -25.80050        6.0027426E-18
  -25.63900        6.0048325E-18
  -25.47750        6.0059864E-18
  -25.31600        6.0069980E-18
  -25.15450        6.0088224E-18
  -24.99300        6.0115128E-18
  -24.83150        6.0141246E-18
  -24.67000        6.0157153E-18
  -24.50850        6.0163638E-18
  -24.34700        6.0170971E-18
  -24.18550        6.0188056E-18
  -24.02400        6.0213335E-18
  -23.86250        6.0237141E-18
  -23.70100        6.0252498E-18
  -23.53950        6.0262329E-18
  -23.37800        6.0275410E-18
  -23.21650        6.0295916E-18
  -23.05500        6.0318407E-18
  -22.89350        6.0333776E-18
  -22.73200        6.0339794E-18
  -22.57050        6.0344439E-18
  -22.40900        6.0358095E-18
  -22.24750        6.0382514E-18
  -22.08600        6.0408549E-18
  -21.92450        6.0425287E-18
  -21.76300        6.0431049E-18
  -21.60150        6.0434581E-18
  -21.44000        6.0445355E-18
  -21.27850        6.0463826E-18
  -21.11700        6.0482156E-18
  -20.95550        6.0494134E-18
  -20.79400        6.0502745E-18
  -20.63250        6.0516802E-18
  -20.47100        6.0540476E-18
  -20.30950        6.0567653E-18
  -20.14800        6.0587568E-18
  -19.98650        6.0595703E-18
  -19.82500        6.0598263E-18
  -19.66350        6.0605278E-18
  -19.50200        6.0619824E-18
  -19.34050        6.0634998E-18
  -19.17900        6.0642071E-18
  -19.01750        6.0641008E-18
  -18.85600        6.0641744E-18
  -18.69450        6.0654408E-18
  -18.53300        6.0678810E-18
  -18.37150        6.0704572E-18
  -18.21000        6.0721881E-18
  -18.04850        6.0731092E-18
  -17.88700        6.0740890E-18
  -17.72550        6.0757384E-18
  -17.56400        6.0776562E-18
  -17.40250        6.0788544E-18
  -17.24100        6.0789127E-18
  -17.07950        6.0785686E-18
  -16.91800        6.0790798E-18
  -16.75650        6.0810158E-18
  -16.59500        6.0837252E-18
  -16.43350        6.0860347E-18
  -16.27200        6.0874235E-18
  -16.11050        6.0884571E-18
  -15.94900        6.0900747E-18
  -15.78750        6.0925335E-18
  -15.62600        6.0951651E-18
  -15.46450        6.0971756E-18
  -15.30300        6.0985433E-18
  -15.14150        6.0999942E-18
  -14.98000        6.1020804E-18
  -14.81850        6.1044411E-18
  -14.65700        6.1061216E-18
  -14.49550        6.1066158E-18
  -14.33400        6.1064491E-18
  -14.17250        6.1066154E-18
  -14.01100        6.1074624E-18
  -13.84950        6.1082681E-18
  -13.68800        6.1080021E-18
  -13.52650        6.1064930E-18
  -13.36500        6.1047414E-18
  -13.20350        6.1040056E-18
  -13.04200        6.1045768E-18
  -12.88050        6.1055206E-18
  -12.71900        6.1056670E-18
  -12.55750        6.1048295E-18
  -12.39600        6.1039849E-18
  -12.23450        6.1042492E-18
  -12.07300        6.1057485E-18
  -11.91150        6.1075915E-18
  -11.75000        6.1089075E-18
  -11.58850        6.1097971E-18
  -11.42700        6.1111508E-18
  -11.26550        6.1136055E-18
  -11.10400        6.1168187E-18
  -10.94250        6.1198532E-18
  -10.78100        6.1221858E-18
  -10.61950        6.1242021E-18
  -10.45800        6.1266497E-18
  -10.29650        6.1297041E-18
  -10.13500        6.1327431E-18
  -9.973500        6.1350927E-18
  -9.812000        6.1369051E-18
  -9.650500        6.1391017E-18
  -9.489000        6.1423475E-18
  -9.327500        6.1461468E-18
  -9.166000        6.1491246E-18
  -9.004500        6.1503244E-18
  -8.843000        6.1502020E-18
  -8.681500        6.1502148E-18
  -8.520000        6.1513832E-18
  -8.358500        6.1532882E-18
  -8.197000        6.1545654E-18
  -8.035500        6.1543557E-18
  -7.874000        6.1531989E-18
  -7.712500        6.1524623E-18
  -7.551000        6.1529586E-18
  -7.389500        6.1542064E-18
  -7.228000        6.1550394E-18
  -7.066500        6.1548437E-18
  -6.905000        6.1540840E-18
  -6.743500        6.1536534E-18
  -6.582000        6.1538519E-18
  -6.420500        6.1541497E-18
  -6.259000        6.1539541E-18
  -6.097500        6.1534404E-18
  -5.936000        6.1534396E-18
  -5.774500        6.1544562E-18
  -5.613000        6.1559703E-18
  -5.451500        6.1568836E-18
  -5.290000        6.1566979E-18
  -5.128500        6.1560986E-18
  -4.967000        6.1562396E-18
  -4.805500        6.1574601E-18
  -4.644000        6.1588551E-18
  -4.482500        6.1592394E-18
  -4.321000        6.1584850E-18
  -4.159500        6.1577910E-18
  -3.998000        6.1585421E-18
  -3.836500        6.1609223E-18
  -3.675000        6.1637219E-18
  -3.513500        6.1655404E-18
  -3.352000        6.1661463E-18
  -3.190500        6.1666087E-18
  -3.029000        6.1681254E-18
  -2.867500        6.1708075E-18
  -2.706000        6.1736522E-18
  -2.544500        6.1756440E-18
  -2.383000        6.1767156E-18
  -2.221500        6.1775718E-18
  -2.060000        6.1787100E-18
  -1.898500        6.1798531E-18
  -1.737000        6.1804582E-18
  -1.575500        6.1806067E-18
  -1.414000        6.1811307E-18
  -1.252500        6.1827152E-18
  -1.091000        6.1850098E-18
 -0.9295000        6.1868403E-18
 -0.7680000        6.1874371E-18
 -0.6065000        6.1873685E-18
 -0.4450000        6.1881009E-18
 -0.2835000        6.1905357E-18
 -0.1220000        6.1939872E-18
  3.9500002E-02    6.1967140E-18
  0.2010000        6.1975188E-18
  0.3625000        6.1968347E-18
  0.5240000        6.1962255E-18
  0.6855000        6.1968368E-18
  0.8470000        6.1983956E-18
   1.008500        6.1997092E-18
   1.170000        6.2000239E-18
   1.331500        6.1997543E-18
   1.493000        6.1998779E-18
   1.654500        6.2007816E-18
   1.816000        6.2018656E-18
   1.977500        6.2022718E-18
   2.139000        6.2018338E-18
   2.300500        6.2011853E-18
   2.462000        6.2009797E-18
   2.623500        6.2011683E-18
   2.785000        6.2011791E-18
   2.946500        6.2007448E-18
   3.108000        6.2003933E-18
   3.269500        6.2009661E-18
   3.431000        6.2026548E-18
   3.592500        6.2046644E-18
   3.754000        6.2059664E-18
   3.915500        6.2064077E-18
   4.077000        6.2069408E-18
   4.238500        6.2086365E-18
   4.400000        6.2114477E-18
   4.561500        6.2140628E-18
   4.723000        6.2150728E-18
   4.884500        6.2143279E-18
   5.046000        6.2131120E-18
   5.207500        6.2129871E-18
   5.369000        6.2144301E-18
   5.530500        6.2165605E-18
   5.692000        6.2180962E-18
   5.853500        6.2185321E-18
   6.015000        6.2184357E-18
   6.176500        6.2187381E-18
   6.338000        6.2198490E-18
   6.499500        6.2214682E-18
   6.661000        6.2230965E-18
   6.822500        6.2245416E-18
   6.984000        6.2258468E-18
   7.145500        6.2268659E-18
   7.307000        6.2271794E-18
   7.468500        6.2265872E-18
   7.630000        6.2256235E-18
   7.791500        6.2253423E-18
   7.953000        6.2263895E-18
   8.114500        6.2282837E-18
   8.276000        6.2297573E-18
   8.437500        6.2299567E-18
   8.599000        6.2293450E-18
   8.760500        6.2293541E-18
   8.922000        6.2310511E-18
   9.083500        6.2340810E-18
   9.245000        6.2369381E-18
   9.406500        6.2383017E-18
   9.568000        6.2381780E-18
   9.729500        6.2377686E-18
   9.891000        6.2382794E-18
   10.05250        6.2398622E-18
   10.21400        6.2416894E-18
   10.37550        6.2429385E-18
   10.53700        6.2435845E-18
   10.69850        6.2442227E-18
   10.86000        6.2452707E-18
   11.02150        6.2465334E-18
   11.18300        6.2475847E-18
   11.34450        6.2484090E-18
   11.50600        6.2494322E-18
   11.66750        6.2508761E-18
   11.82900        6.2522285E-18
   11.99050        6.2526061E-18
   12.15200        6.2517417E-18
   12.31350        6.2505196E-18
   12.47500        6.2503177E-18
   12.63650        6.2516892E-18
   12.79800        6.2536910E-18
   12.95950        6.2546704E-18
   13.12100        6.2538287E-18
   13.28250        6.2520482E-18
   13.44400        6.2510957E-18
   13.60550        6.2519564E-18
   13.76700        6.2539176E-18
   13.92850        6.2552792E-18
   14.09000        6.2549392E-18
   14.25150        6.2532708E-18
   14.41300        6.2515515E-18
   14.57450        6.2506891E-18
   14.73600        6.2505907E-18
   14.89750        6.2506523E-18
   15.05900        6.2506031E-18
   15.22050        6.2507028E-18
   15.38200        6.2512086E-18
   15.54350        6.2519171E-18
   15.70500        6.2524510E-18
   15.86650        6.2529440E-18
   16.02800        6.2541819E-18
   16.18950        6.2568268E-18
   16.35100        6.2604677E-18
   16.51250        6.2636556E-18
   16.67400        6.2651367E-18
   16.83550        6.2651359E-18
   16.99700        6.2653042E-18
   17.15850        6.2671889E-18
   17.32000        6.2706825E-18
   17.48150        6.2740169E-18
   17.64300        6.2754103E-18
   17.80450        6.2747543E-18
   17.96600        6.2736976E-18
   18.12750        6.2740926E-18
   18.28900        6.2763632E-18
   18.45050        6.2793125E-18
   18.61200        6.2813680E-18
   18.77350        6.2819123E-18
   18.93500        6.2815120E-18
   19.09650        6.2810971E-18
   19.25800        6.2811352E-18
   19.41950        6.2815599E-18
   19.58100        6.2822217E-18
   19.74250        6.2830944E-18
   19.90400        6.2839716E-18
   20.06550        6.2842235E-18
   20.22700        6.2832478E-18
   20.38850        6.2813358E-18
   20.55000        6.2798985E-18
   20.71150        6.2804420E-18
   20.87300        6.2830638E-18
   21.03450        6.2860147E-18
   21.19600        6.2870235E-18
   21.35750        6.2852914E-18
   21.51900        6.2822755E-18
   21.68050        6.2804424E-18
   21.84200        6.2811323E-18
   22.00350        6.2835034E-18
   22.16500        6.2854464E-18
   22.32650        6.2855197E-18
   22.48800        6.2840948E-18
   22.64950        6.2828115E-18
   22.81100        6.2830559E-18
   22.97250        6.2849423E-18
   23.13400        6.2875644E-18
   23.29550        6.2899724E-18
   23.45700        6.2917913E-18
   23.61850        6.2930631E-18
   23.78000        6.2938461E-18
   23.94150        6.2941984E-18
   24.10300        6.2944710E-18
   24.26450        6.2952651E-18
   24.42600        6.2968367E-18
   24.58750        6.2985829E-18
   24.74900        6.2993749E-18
   24.91050        6.2986565E-18
   25.07200        6.2972346E-18
   25.23350        6.2968103E-18
   25.39500        6.2985167E-18
   25.55650        6.3017800E-18
   25.71800        6.3046643E-18
   25.87950        6.3054808E-18
   26.04100        6.3042412E-18
   26.20250        6.3026125E-18
   26.36400        6.3023999E-18
   26.52550        6.3039641E-18
   26.68700        6.3059758E-18
   26.84850        6.3066616E-18
   27.01000        6.3053042E-18
   27.17150        6.3026969E-18
   27.33300        6.3003556E-18
   27.49450        6.2994022E-18
   27.65600        6.3000540E-18
   27.81750        6.3018527E-18
   27.97900        6.3041043E-18
   28.14050        6.3061115E-18
   28.30200        6.3073092E-18
   28.46350        6.3075425E-18
   28.62500        6.3073589E-18
   28.78650        6.3078601E-18
   28.94800        6.3099351E-18
   29.10950        6.3133820E-18
   29.27100        6.3167743E-18
   29.43250        6.3184481E-18
   29.59400        6.3179038E-18
   29.75550        6.3163855E-18
   29.91700        6.3159723E-18
   30.07850        6.3178430E-18
   30.24000        6.3212485E-18
   30.40150        6.3241196E-18
   30.56300        6.3247818E-18
   30.72450        6.3232469E-18
   30.88600        6.3210040E-18
   31.04750        6.3196673E-18
   31.20900        6.3197517E-18
   31.37050        6.3205599E-18
   31.53200        6.3210189E-18
   31.69350        6.3205809E-18
   31.85500        6.3194605E-18
   32.01650        6.3182636E-18
   32.17800        6.3175274E-18
   32.33950        6.3175613E-18
   32.50100        6.3184758E-18
   32.66250        6.3201206E-18
   32.82400        6.3219321E-18
   32.98550        6.3230402E-18
   33.14700        6.3228408E-18
   33.30850        6.3216240E-18
   33.47000        6.3205379E-18
   33.63150        6.3206562E-18
   33.79300        6.3219036E-18
   33.95450        6.3229401E-18
   34.11600        6.3223007E-18
   34.27750        6.3198315E-18
   34.43900        6.3170551E-18
   34.60050        6.3160439E-18
   34.76200        6.3177582E-18
   34.92350        6.3213109E-18
   35.08500        6.3247702E-18
   35.24650        6.3267381E-18
   35.40800        6.3273369E-18
   35.56950        6.3278378E-18
   35.73100        6.3294148E-18
   35.89250        6.3321966E-18
   36.05400        6.3353312E-18
   36.21550        6.3377702E-18
   36.37700        6.3389336E-18
   36.53850        6.3388161E-18
   36.70000        6.3378124E-18
   36.86150        6.3366311E-18
   37.02300        6.3362246E-18
   37.18450        6.3373591E-18
   37.34600        6.3399022E-18
   37.50750        6.3425455E-18
   37.66900        6.3435451E-18
   37.83050        6.3421327E-18
   37.99200        6.3393613E-18
   38.15350        6.3374492E-18
   38.31500        6.3380059E-18
   38.47650        6.3406173E-18
   38.63800        6.3431084E-18
   38.79950        6.3433491E-18
   38.96100        6.3410549E-18
   39.12250        6.3380121E-18
   39.28400        6.3365559E-18
   39.44550        6.3376870E-18
   39.60700        6.3404639E-18
   39.76850        6.3430042E-18
   39.93000        6.3439955E-18
   40.09150        6.3434053E-18
   40.25300        6.3420992E-18
   40.41450        6.3410710E-18
   40.57600        6.3409875E-18
   40.73750        6.3420893E-18
   40.89900        6.3441076E-18
   41.06050        6.3461900E-18
   41.22200        6.3471980E-18
   41.38350        6.3465126E-18
   41.54500        6.3447731E-18
   41.70650        6.3437304E-18
   41.86800        6.3449786E-18
   42.02950        6.3485053E-18
   42.19100        6.3524018E-18
   42.35250        6.3542360E-18
   42.51400        6.3530329E-18
   42.67550        6.3501101E-18
   42.83700        6.3479317E-18
   42.99850        6.3479871E-18
   43.16000        6.3496104E-18
   43.32150        6.3507602E-18
   43.48300        6.3499268E-18
   43.64450        6.3473791E-18
   43.80600        6.3447855E-18
   43.96750        6.3437834E-18
   44.12900        6.3448616E-18
   44.29050        6.3473299E-18
   44.45200        6.3500588E-18
   44.61350        6.3521813E-18
   44.77500        6.3533402E-18
   44.93650        6.3536347E-18
   45.09800        6.3535511E-18
   45.25950        6.3538460E-18
   45.42100        6.3551476E-18
   45.58250        6.3573719E-18
   45.74400        6.3595089E-18
   45.90550        6.3602662E-18
   46.06700        6.3592458E-18
   46.22850        6.3576006E-18
   46.39000        6.3573090E-18
   46.55150        6.3595201E-18
   46.71300        6.3634194E-18
   46.87450        6.3667773E-18
   47.03600        6.3677832E-18
   47.19750        6.3665470E-18
   47.35900        6.3649447E-18
   47.52050        6.3649927E-18
   47.68200        6.3672178E-18
   47.84350        6.3703520E-18
   48.00500        6.3724477E-18
   48.16650        6.3723571E-18
   48.32800        6.3704310E-18
   48.48950        6.3680723E-18
   48.65100        6.3667095E-18
   48.81250        6.3670044E-18
   48.97400        6.3686530E-18
   49.13550        6.3706527E-18
   49.29700        6.3717867E-18
   49.45850        6.3712230E-18
   49.62000        6.3690901E-18
   49.78150        6.3666379E-18
   49.94300        6.3655920E-18
   50.10450        6.3668944E-18
   50.26600        6.3697858E-18
   50.42750        6.3721672E-18
   50.58900        6.3721639E-18
   50.75050        6.3696799E-18
   50.91200        6.3665879E-18
   51.07350        6.3653273E-18
   51.23500        6.3670300E-18
   51.39650        6.3706891E-18
   51.55800        6.3739870E-18
   51.71950        6.3750657E-18
   51.88100        6.3738038E-18
   52.04250        6.3716701E-18
   52.20400        6.3704186E-18
   52.36550        6.3707838E-18
   52.52700        6.3721619E-18
   52.68850        6.3733178E-18
   52.85000        6.3733567E-18
   53.01150        6.3722313E-18
   53.17300        6.3706217E-18
   53.33450        6.3694909E-18
   53.49600        6.3696050E-18
   53.65750        6.3711473E-18
   53.81900        6.3735730E-18
   53.98050        6.3758527E-18
   54.14200        6.3770832E-18
   54.30350        6.3770939E-18
   54.46500        6.3765707E-18
   54.62650        6.3765285E-18
   54.78800        6.3774860E-18
   54.94950        6.3789944E-18
   55.11100        6.3799510E-18
   55.27250        6.3795291E-18
   55.43400        6.3779695E-18
   55.59550        6.3764959E-18
   55.75700        6.3763499E-18
   55.91850        6.3777333E-18
   56.08000        6.3796416E-18
   56.24150        6.3807447E-18
   56.40300        6.3805143E-18
   56.56450        6.3795978E-18
   56.72600        6.3791772E-18
   56.88750        6.3799502E-18
   57.04900        6.3816145E-18
   57.21050        6.3832014E-18
   57.37200        6.3838867E-18
   57.53350        6.3835964E-18
   57.69500        6.3829925E-18
   57.85650        6.3829384E-18
   58.01800        6.3839306E-18
   58.17950        6.3859055E-18
   58.34100        6.3884040E-18
   58.50250        6.3908239E-18
   58.66400        6.3926102E-18
   58.82550        6.3934498E-18
   58.98700        6.3935168E-18
   59.14850        6.3934882E-18
   59.31000        6.3941132E-18
   59.47150        6.3955334E-18
   59.63300        6.3969901E-18
   59.79450        6.3973375E-18
   59.95600        6.3960058E-18
   60.11750        6.3935701E-18
   60.27900        6.3913644E-18
   60.44050        6.3904405E-18
   60.60200        6.3907577E-18
   60.76350        6.3912842E-18
   60.92500        6.3908958E-18
   61.08650        6.3892828E-18
   61.24800        6.3870859E-18
   61.40950        6.3852292E-18
   61.57100        6.3841713E-18
   61.73250        6.3837763E-18
   61.89400        6.3837751E-18
   62.05550        6.3841589E-18
   62.21700        6.3850514E-18
   62.37850        6.3863162E-18
   62.54000        6.3875288E-18
   62.70150        6.3884424E-18
   62.86300        6.3893962E-18
   63.02450        6.3910911E-18
   63.18600        6.3938534E-18
   63.34750        6.3971311E-18
   63.50900        6.3997976E-18
   63.67050        6.4010387E-18
   63.83200        6.4010164E-18
   63.99350        6.4006901E-18
   64.15500        6.4009672E-18
   64.31650        6.4019706E-18
   64.47800        6.4030724E-18
   64.63950        6.4035865E-18
   64.80100        6.4033582E-18
   64.96250        6.4027229E-18
   65.12400        6.4020094E-18
   65.28550        6.4012708E-18
   65.44700        6.4005205E-18
   65.60850        6.4000532E-18
   65.77000        6.4002984E-18
   65.93150        6.4012997E-18
   66.09300        6.4024735E-18
   66.25450        6.4030711E-18
   66.41600        6.4029346E-18
   66.57750        6.4027192E-18
   66.73900        6.4032705E-18
   66.90050        6.4047098E-18
   67.06200        6.4061606E-18
   67.22350        6.4064241E-18
   67.38500        6.4050158E-18
   67.54650        6.4025835E-18
   67.70800        6.4002980E-18
   67.86950        6.3988211E-18
   68.03100        6.3978330E-18
   68.19250        6.3965509E-18
   68.35400        6.3946599E-18
   68.51550        6.3926776E-18
   68.67700        6.3914401E-18
   68.83850        6.3913239E-18
   69.00000        6.3920229E-18
   69.16150        6.3929919E-18
   69.32300        6.3939630E-18
   69.48450        6.3950185E-18
   69.64600        6.3963242E-18
   69.80750        6.3979517E-18
   69.96900        6.3999812E-18
   70.13050        6.4026096E-18
   70.29200        6.4059729E-18
   70.45350        6.4098027E-18
   70.61500        6.4133546E-18
   70.77650        6.4158614E-18
   70.93800        6.4172097E-18
   71.09950        6.4181473E-18
   71.26100        6.4196395E-18
   71.42250        6.4218411E-18
   71.58400        6.4236679E-18
   71.74550        6.4235608E-18
   71.90700        6.4208543E-18
   72.06850        6.4164905E-18
   72.23000        6.4123500E-18
   72.39150        6.4097746E-18
   72.55300        6.4086161E-18
   72.71450        6.4075892E-18
   72.87600        6.4055039E-18
   73.03750        6.4022609E-18
   73.19900        6.3988690E-18
   73.36050        6.3966464E-18
   73.52200        6.3963168E-18
   73.68350        6.3976502E-18
   73.84500        6.3997421E-18
   74.00650        6.4016062E-18
   74.16800        6.4026774E-18
   74.32950        6.4030207E-18
   74.49100        6.4032618E-18
   74.65250        6.4042825E-18
   74.81400        6.4066904E-18
   74.97550        6.4102845E-18
   75.13700        6.4139725E-18
   75.29850        6.4164288E-18
   75.46000        6.4171332E-18
   75.62150        6.4168710E-18
   75.78300        6.4171208E-18
   75.94450        6.4187491E-18
   76.10600        6.4211653E-18
   76.26750        6.4227336E-18
   76.42900        6.4221066E-18
   76.59050        6.4193430E-18
   76.75200        6.4158870E-18
   76.91350        6.4134489E-18
   77.07500        6.4127388E-18
   77.23650        6.4130701E-18
   77.39800        6.4130887E-18
   77.55950        6.4119497E-18
   77.72100        6.4099400E-18
   77.88250        6.4081103E-18
   78.04400        6.4073741E-18
   78.20550        6.4078547E-18
   78.36700        6.4089205E-18
   78.52850        6.4096997E-18
   78.69000        6.4096199E-18
   78.85150        6.4087241E-18
   79.01300        6.4076578E-18
   79.17450        6.4073170E-18
   79.33600        6.4082555E-18
   79.49750        6.4101923E-18
   79.65900        6.4120663E-18
   79.82050        6.4127272E-18
   79.98200        6.4118210E-18
   80.14350        6.4101576E-18
   80.30500        6.4091910E-18
   80.46650        6.4099280E-18
   80.62800        6.4120903E-18
   80.78950        6.4142596E-18
   80.95100        6.4149875E-18
   81.11250        6.4140172E-18
   81.27400        6.4125634E-18
   81.43550        6.4123488E-18
   81.59700        6.4141843E-18
   81.75850        6.4172970E-18
   81.92000        6.4199526E-18
   82.08150        6.4208125E-18
   82.24300        6.4199009E-18
   82.40450        6.4185059E-18
   82.56600        6.4181845E-18
   82.72750        6.4196511E-18
   82.88900        6.4223027E-18
   83.05050        6.4246634E-18
   83.21200        6.4253818E-18
   83.37350        6.4241109E-18
   83.53500        6.4216641E-18
   83.69650        6.4194104E-18
   83.85800        6.4183578E-18
   84.01950        6.4185291E-18
   84.18100        6.4190096E-18
   84.34250        6.4186130E-18
   84.50400        6.4167730E-18
   84.66550        6.4140619E-18
   84.82700        6.4119046E-18
   84.98850        6.4115729E-18
   85.15000        6.4131722E-18
   85.31150        6.4154631E-18
   85.47300        6.4167523E-18
   85.63450        6.4161927E-18
   85.79600        6.4144630E-18
   85.95750        6.4132851E-18
   86.11900        6.4141227E-18
   86.28050        6.4170459E-18
   86.44200        6.4206417E-18
   86.60350        6.4230484E-18
   86.76500        6.4233474E-18
   86.92650        6.4222063E-18
   87.08800        6.4212542E-18
   87.24950        6.4217145E-18
   87.41100        6.4234239E-18
   87.57250        6.4250067E-18
   87.73400        6.4249856E-18
   87.89550        6.4229127E-18
   88.05700        6.4196999E-18
   88.21850        6.4169942E-18
   88.38000        6.4161054E-18
   88.54150        6.4171919E-18
   88.70300        6.4191887E-18
   88.86450        6.4205073E-18
   89.02600        6.4200676E-18
   89.18750        6.4180021E-18
   89.34900        6.4155831E-18
   89.51050        6.4143915E-18
   89.67200        6.4152179E-18
   89.83350        6.4174347E-18
   89.99500        6.4193339E-18
   90.15650        6.4193273E-18
   90.31800        6.4171927E-18
   90.47950        6.4143671E-18
   90.64100        6.4129142E-18
   90.80250        6.4139022E-18
   90.96400        6.4165293E-18
   91.12550        6.4187834E-18
   91.28700        6.4190953E-18
   91.44850        6.4175848E-18
   91.61000        6.4158742E-18
   91.77150        6.4157038E-18
   91.93300        6.4175484E-18
   92.09450        6.4203422E-18
   92.25600        6.4224007E-18
   92.41750        6.4227133E-18
   92.57900        6.4215851E-18
   92.74050        6.4202649E-18
   92.90200        6.4200258E-18
   93.06350        6.4214081E-18
   93.22500        6.4240505E-18
   93.38650        6.4270184E-18
   93.54800        6.4293436E-18
   93.70950        6.4305443E-18
   93.87100        6.4309235E-18
   94.03250        6.4314087E-18
   94.19400        6.4328343E-18
   94.35550        6.4350958E-18
   94.51700        6.4369363E-18
   94.67850        6.4367957E-18
   94.84000        6.4341731E-18
   95.00150        6.4303040E-18
   95.16300        6.4274159E-18
   95.32450        6.4270436E-18
   95.48600        6.4288188E-18
   95.64750        6.4307846E-18
   95.80900        6.4309715E-18
   95.97050        6.4289052E-18
   96.13200        6.4257979E-18
   96.29350        6.4233726E-18
   96.45500        6.4224251E-18
   96.61650        6.4223316E-18
   96.77800        6.4217666E-18
   96.93950        6.4198356E-18
   97.10100        6.4166720E-18
   97.26250        6.4132128E-18
   97.42400        6.4105873E-18
   97.58550        6.4095943E-18
   97.74700        6.4104032E-18
   97.90850        6.4124278E-18
   98.07000        6.4144982E-18
   98.23150        6.4154730E-18
   98.39300        6.4150611E-18
   98.55450        6.4141793E-18
   98.71600        6.4143625E-18
   98.87750        6.4165339E-18
   99.03900        6.4201532E-18
   99.20050        6.4235567E-18
   99.36200        6.4252718E-18
   99.52350        6.4252023E-18
   99.68500        6.4246183E-18
   99.84650        6.4250046E-18
   100.0080        6.4267967E-18
   100.1695        6.4291463E-18
   100.3310        6.4307986E-18
   100.4925        6.4311733E-18
   100.6540        6.4306592E-18
   100.8155        6.4300351E-18
   100.9770        6.4297440E-18
   101.1385        6.4297096E-18
   101.3000        6.4296550E-18
   101.4615        6.4293953E-18
   101.6230        6.4288093E-18
   101.7845        6.4277343E-18
   101.9460        6.4261027E-18
   102.1075        6.4242325E-18
   102.2690        6.4228440E-18
   102.4305        6.4226017E-18
   102.5920        6.4235364E-18
   102.7535        6.4249455E-18
   102.9150        6.4259377E-18
   103.0765        6.4261660E-18
   103.2380        6.4260403E-18
   103.3995        6.4262214E-18
   103.5610        6.4269109E-18
   103.7225        6.4276508E-18
   103.8840        6.4278220E-18
   104.0455        6.4272877E-18
   104.2070        6.4265147E-18
   104.3685        6.4260953E-18
   104.5300        6.4262189E-18
   104.6915        6.4266238E-18
   104.8530        6.4269680E-18
   105.0145        6.4271355E-18
   105.1760        6.4271723E-18
   105.3375        6.4270585E-18
   105.4990        6.4266908E-18
   105.6605        6.4261060E-18
   105.8220        6.4256139E-18
   105.9835        6.4255882E-18
   106.1450        6.4260419E-18
   106.3065        6.4264741E-18
   106.4680        6.4262177E-18
   106.6295        6.4250390E-18
   106.7910        6.4234131E-18
   106.9525        6.4221604E-18
   107.1140        6.4217493E-18
   107.2755        6.4219031E-18
   107.4370        6.4218870E-18
   107.5985        6.4212058E-18
   107.7600        6.4200585E-18
   107.9215        6.4191747E-18
   108.0830        6.4192396E-18
   108.2445        6.4204088E-18
   108.4060        6.4222150E-18
   108.5675        6.4238300E-18
   108.7290        6.4244554E-18
   108.8905        6.4236902E-18
   109.0520        6.4217687E-18
   109.2135        6.4195337E-18
   109.3750        6.4180547E-18
   109.5365        6.4180191E-18
   109.6980        6.4192880E-18
   109.8595        6.4209816E-18
   110.0210        6.4221219E-18
   110.1825        6.4223816E-18
   110.3440        6.4223630E-18
   110.5055        6.4231302E-18
   110.6670        6.4253380E-18
   110.8285        6.4286409E-18
   110.9900        6.4318752E-18
   111.1515        6.4338741E-18
   111.3130        6.4342868E-18
   111.4745        6.4337773E-18
   111.6360        6.4334899E-18
   111.7975        6.4342265E-18
   111.9590        6.4359139E-18
   112.1205        6.4376787E-18
   112.2820        6.4384467E-18
   112.4435        6.4376539E-18
   112.6050        6.4356124E-18
   112.7665        6.4332884E-18
   112.9280        6.4316237E-18
   113.0895        6.4308950E-18
   113.2510        6.4305707E-18
   113.4125        6.4297675E-18
   113.5740        6.4279473E-18
   113.7355        6.4253277E-18
   113.8970        6.4227278E-18
   114.0585        6.4209725E-18
   114.2200        6.4203166E-18
   114.3815        6.4202910E-18
   114.5430        6.4200999E-18
   114.7045        6.4192553E-18
   114.8660        6.4179885E-18
   115.0275        6.4171030E-18
   115.1890        6.4173892E-18
   115.3505        6.4190005E-18
   115.5120        6.4212687E-18
   115.6735        6.4231058E-18
   115.8350        6.4237316E-18
   115.9965        6.4232299E-18
   116.1580        6.4225090E-18
   116.3195        6.4226571E-18
   116.4810        6.4241266E-18
   116.6425        6.4263765E-18
   116.8040        6.4282857E-18
   116.9655        6.4290103E-18
   117.1270        6.4286190E-18
   117.2885        6.4279647E-18
   117.4500        6.4279668E-18
   117.6115        6.4288701E-18
   117.7730        6.4300715E-18
   117.9345        6.4305654E-18
   118.0960        6.4296604E-18
   118.2575        6.4274452E-18
   118.4190        6.4247213E-18
   118.5805        6.4224995E-18
   118.7420        6.4213969E-18