  -27.90000        8.8737438E-18
  -27.73850        8.9021922E-18
  -27.57700        8.9479080E-18
  -27.41550        8.9942632E-18
  -27.25400        9.0267060E-18
  -27.09250        9.0392080E-18
  -26.93100        9.0366388E-18
  -26.76950        9.0319950E-18
  -26.60800        9.0398160E-18
  -26.44650        9.0689435E-18
  -26.28500        9.1180475E-18
  -26.12350        9.1760254E-18
  -25.96200        9.2270972E-18
  -25.80050        9.2581570E-18
  -25.63900        9.2649241E-18
  -25.47750        9.2539648E-18
  -25.31600        9.2396562E-18
  -25.15450        9.2374990E-18
  -24.99300        9.2569542E-18
  -24.83150        9.2971403E-18
  -24.67000        9.3474073E-18
  -24.50850        9.3924630E-18
  -24.34700        9.4196276E-18
  -24.18550        9.4247578E-18
  -24.02400        9.4140962E-18
  -23.86250        9.4011872E-18
  -23.70100        9.4003940E-18
  -23.53950        9.4200867E-18
  -23.37800        9.4587416E-18
  -23.21650        9.5057561E-18
  -23.05500        9.5465593E-18
  -22.89350        9.5695375E-18
  -22.73200        9.5715037E-18
  -22.57050        9.5591126E-18
  -22.40900        9.5455989E-18
  -22.24750        9.5444392E-18
  -22.08600        9.5629457E-18
  -21.92450        9.5988586E-18
  -21.76300        9.6414923E-18
  -21.60150        9.6768741E-18
  -21.44000        9.6943789E-18
  -21.27850        9.6917204E-18
  -21.11700        9.6759494E-18
  -20.95550        9.6600278E-18
  -20.79400        9.6566570E-18
  -20.63250        9.6723263E-18
  -20.47100        9.7043837E-18
  -20.30950        9.7424902E-18
  -20.14800        9.7737130E-18
  -19.98650        9.7887619E-18
  -19.82500        9.7863862E-18
  -19.66350        9.7738470E-18
  -19.50200        9.7632748E-18
  -19.34050        9.7657042E-18
  -19.17900        9.7856757E-18
  -19.01750        9.8190020E-18
  -18.85600        9.8547519E-18
  -18.69450        9.8804904E-18
  -18.53300        9.8882370E-18
  -18.37150        9.8782719E-18
  -18.21000        9.8589912E-18
  -18.04850        9.8428926E-18
  -17.88700        9.8406476E-18
  -17.72550        9.8561134E-18
  -17.56400        9.8846760E-18
  -17.40250        9.9156655E-18
  -17.24100        9.9376635E-18
  -17.07950        9.9440857E-18
  -16.91800        9.9363483E-18
  -16.75650        9.9230778E-18
  -16.59500        9.9157796E-18
  -16.43350        9.9230720E-18
  -16.27200        9.9463034E-18
  -16.11050        9.9786958E-18
  -15.94900        1.0008457E-17
  -15.78750        1.0024377E-17
  -15.62600        1.0021221E-17
  -15.46450        1.0002323E-17
  -15.30300        9.9781118E-18
  -15.14150        9.9612712E-18
  -14.98000        9.9608519E-18
  -14.81850        9.9781565E-18
  -14.65700        1.0006375E-17
  -14.49550        1.0034143E-17
  -14.33400        1.0051299E-17
  -14.17250        1.0054022E-17
  -14.01100        1.0046847E-17
  -13.84950        1.0040535E-17
  -13.68800        1.0046791E-17
  -13.52650        1.0072381E-17
  -13.36500        1.0115492E-17
  -13.20350        1.0166162E-17
  -13.04200        1.0210630E-17
  -12.88050        1.0237569E-17
  -12.71900        1.0243244E-17
  -12.55750        1.0233089E-17
  -12.39600        1.0218945E-17
  -12.23450        1.0213253E-17
  -12.07300        1.0222967E-17
  -11.91150        1.0246141E-17
  -11.75000        1.0272828E-17
  -11.58850        1.0289911E-17
  -11.42700        1.0287553E-17
  -11.26550        1.0264182E-17
  -11.10400        1.0227570E-17
  -10.94250        1.0191471E-17
  -10.78100        1.0169343E-17
  -10.61950        1.0168148E-17
  -10.45800        1.0185192E-17
  -10.29650        1.0209527E-17
  -10.13500        1.0227315E-17
  -9.973500        1.0228604E-17
  -9.812000        1.0212307E-17
  -9.650500        1.0186970E-17
  -9.489000        1.0166917E-17
  -9.327500        1.0165553E-17
  -9.166000        1.0188959E-17
  -9.004500        1.0232856E-17
  -8.843000        1.0284390E-17
  -8.681500        1.0327965E-17
  -8.520000        1.0352385E-17
  -8.358500        1.0355950E-17
  -8.197000        1.0347053E-17
  -8.035500        1.0340012E-17
  -7.874000        1.0348077E-17
  -7.712500        1.0376915E-17
  -7.551000        1.0421740E-17
  -7.389500        1.0469426E-17
  -7.228000        1.0504681E-17
  -7.066500        1.0517344E-17
  -6.905000        1.0507355E-17
  -6.743500        1.0484991E-17
  -6.582000        1.0466221E-17
  -6.420500        1.0465330E-17
  -6.259000        1.0488277E-17
  -6.097500        1.0529908E-17
  -5.936000        1.0576353E-17
  -5.774500        1.0611476E-17
  -5.613000        1.0624357E-17
  -5.451500        1.0614291E-17
  -5.290000        1.0590952E-17
  -5.128500        1.0569687E-17
  -4.967000        1.0564159E-17
  -4.805500        1.0579815E-17
  -4.644000        1.0611302E-17
  -4.482500        1.0645027E-17
  -4.321000        1.0665663E-17
  -4.159500        1.0663529E-17
  -3.998000        1.0639357E-17
  -3.836500        1.0604165E-17
  -3.675000        1.0574281E-17
  -3.513500        1.0563852E-17
  -3.352000        1.0578330E-17
  -3.190500        1.0612018E-17
  -3.029000        1.0650788E-17
  -2.867500        1.0678711E-17
  -2.706000        1.0685460E-17
  -2.544500        1.0670997E-17
  -2.383000        1.0645372E-17
  -2.221500        1.0623769E-17
  -2.060000        1.0619179E-17
  -1.898500        1.0636189E-17
  -1.737000        1.0668849E-17
  -1.575500        1.0703579E-17
  -1.414000        1.0725732E-17
  -1.252500        1.0726653E-17
  -1.091000        1.0707891E-17
 -0.9295000        1.0680568E-17
 -0.7680000        1.0660229E-17
 -0.6065000        1.0659615E-17
 -0.4450000        1.0682795E-17
 -0.2835000        1.0723389E-17
 -0.1220000        1.0767690E-17
  3.9500002E-02    1.0801148E-17
  0.2010000        1.0815133E-17
  0.3625000        1.0810769E-17
  0.5240000        1.0798099E-17
  0.6855000        1.0791009E-17
  0.8470000        1.0800400E-17
   1.008500        1.0828845E-17
   1.170000        1.0869293E-17
   1.331500        1.0908372E-17
   1.493000        1.0932701E-17
   1.654500        1.0935188E-17
   1.816000        1.0918301E-17
   1.977500        1.0892804E-17
   2.139000        1.0872581E-17
   2.300500        1.0868067E-17
   2.462000        1.0881420E-17
   2.623500        1.0905728E-17
   2.785000        1.0928597E-17
   2.946500        1.0938355E-17
   3.108000        1.0929872E-17
   3.269500        1.0907204E-17
   3.431000        1.0881816E-17
   3.592500        1.0867236E-17
   3.754000        1.0872772E-17
   3.915500        1.0899264E-17
   4.077000        1.0938899E-17
   4.238500        1.0979119E-17
   4.400000        1.1008693E-17
   4.561500        1.1022981E-17
   4.723000        1.1025887E-17
   4.884500        1.1027577E-17
   5.046000        1.1039107E-17
   5.207500        1.1066609E-17
   5.369000        1.1107865E-17
   5.530500        1.1152964E-17
   5.692000        1.1188708E-17
   5.853500        1.1204689E-17
   6.015000        1.1198087E-17
   6.176500        1.1174928E-17
   6.338000        1.1147177E-17
   6.499500        1.1127111E-17
   6.661000        1.1121652E-17
   6.822500        1.1129388E-17
   6.984000        1.1141700E-17
   7.145500        1.1147406E-17
   7.307000        1.1138644E-17
   7.468500        1.1115115E-17
   7.630000        1.1084583E-17
   7.791500        1.1059341E-17
   7.953000        1.1050359E-17
   8.114500        1.1061918E-17
   8.276000        1.1089376E-17
   8.437500        1.1121187E-17
   8.599000        1.1144251E-17
   8.760500        1.1150069E-17
   8.922000        1.1138721E-17
   9.083500        1.1118772E-17
   9.245000        1.1103108E-17
   9.406500        1.1102689E-17
   9.568000        1.1121250E-17
   9.729500        1.1153495E-17
   9.891000        1.1187678E-17
   10.05250        1.1211341E-17
   10.21400        1.1217443E-17
   10.37550        1.1207889E-17
   10.53700        1.1192745E-17
   10.69850        1.1185443E-17
   10.86000        1.1196254E-17
   11.02150        1.1227168E-17
   11.18300        1.1270662E-17
   11.34450        1.1313031E-17
   11.50600        1.1340734E-17
   11.66750        1.1346763E-17
   11.82900        1.1333998E-17
   11.99050        1.1313902E-17
   12.15200        1.1301132E-17
   12.31350        1.1306593E-17
   12.47500        1.1332223E-17
   12.63650        1.1370025E-17
   12.79800        1.1405840E-17
   12.95950        1.1426117E-17
   13.12100        1.1424474E-17
   13.28250        1.1404888E-17
   13.44400        1.1379958E-17
   13.60550        1.1364994E-17
   13.76700        1.1370722E-17
   13.92850        1.1398080E-17
   14.09000        1.1437606E-17
   14.25150        1.1473808E-17
   14.41300        1.1492457E-17
   14.57450        1.1487380E-17
   14.73600        1.1463502E-17
   14.89750        1.1434640E-17
   15.05900        1.1417029E-17
   15.22050        1.1421630E-17
   15.38200        1.1448851E-17
   15.54350        1.1488220E-17
   15.70500        1.1523217E-17
   15.86650        1.1538996E-17
   16.02800        1.1529378E-17
   16.18950        1.1499807E-17
   16.35100        1.1464828E-17
   16.51250        1.1441293E-17
   16.67400        1.1440463E-17
   16.83550        1.1462770E-17
   16.99700        1.1497739E-17
   17.15850        1.1529109E-17
   17.32000        1.1542782E-17
   17.48150        1.1533770E-17
   17.64300        1.1508858E-17
   17.80450        1.1483650E-17
   17.96600        1.1475327E-17
   18.12750        1.1494548E-17
   18.28900        1.1540271E-17
   18.45050        1.1599993E-17
   18.61200        1.1655302E-17
   18.77350        1.1690162E-17
   18.93500        1.1698030E-17
   19.09650        1.1684456E-17
   19.25800        1.1663979E-17
   19.41950        1.1652808E-17
   19.58100        1.1660822E-17
   19.74250        1.1686712E-17
   19.90400        1.1718596E-17
   20.06550        1.1739810E-17
   20.22700        1.1737115E-17
   20.38850        1.1707373E-17
   20.55000        1.1659498E-17
   20.71150        1.1610718E-17
   20.87300        1.1578902E-17
   21.03450        1.1574565E-17
   21.19600        1.1596343E-17
   21.35750        1.1632010E-17
   21.51900        1.1664544E-17
   21.68050        1.1680289E-17
   21.84200        1.1675328E-17
   22.00350        1.1657068E-17
   22.16500        1.1640346E-17
   22.32650        1.1639969E-17
   22.48800        1.1663328E-17
   22.64950        1.1706621E-17
   22.81100        1.1756484E-17
   22.97250        1.1796247E-17
   23.13400        1.1813755E-17
   23.29550        1.1807031E-17
   23.45700        1.1785074E-17
   23.61850        1.1763435E-17
   23.78000        1.1756744E-17
   23.94150        1.1771770E-17
   24.10300        1.1804345E-17
   24.26450        1.1841555E-17
   24.42600        1.1868116E-17
   24.58750        1.1873801E-17
   24.74900        1.1858350E-17
   24.91050        1.1831512E-17
   25.07200        1.1808270E-17
   25.23350        1.1801599E-17
   25.39500        1.1816276E-17
   25.55650        1.1846745E-17
   25.71800        1.1879993E-17
   25.87950        1.1901990E-17
   26.04100        1.1904533E-17
   26.20250        1.1889144E-17
   26.36400        1.1866189E-17
   26.52550        1.1849668E-17
   26.68700        1.1850280E-17
   26.84850        1.1870159E-17
   27.01000        1.1901817E-17
   27.17150        1.1931820E-17
   27.33300        1.1947335E-17
   27.49450        1.1942377E-17
   27.65600        1.1920686E-17
   27.81750        1.1893899E-17
   27.97900        1.1875931E-17
   28.14050        1.1876321E-17
   28.30200        1.1895803E-17
   28.46350        1.1926205E-17
   28.62500        1.1954690E-17
   28.78650        1.1970192E-17
   28.94800        1.1968888E-17
   29.10950        1.1956000E-17
   29.27100        1.1943070E-17
   29.43250        1.1942069E-17
   29.59400        1.1959247E-17
   29.75550        1.1991792E-17
   29.91700        1.2028925E-17
   30.07850        1.2056954E-17
   30.24000        1.2065819E-17
   30.40150        1.2053951E-17
   30.56300        1.2029082E-17
   30.72450        1.2004625E-17
   30.88600        1.1993348E-17
   31.04750        1.2001443E-17
   31.20900        1.2025826E-17
   31.37050        1.2055975E-17
   31.53200        1.2079352E-17
   31.69350        1.2087746E-17
   31.85500        1.2081418E-17
   32.01650        1.2068999E-17
   32.17800        1.2063169E-17
   32.33950        1.2074240E-17
   32.50100        1.2104735E-17
   32.66250        1.2147666E-17
   32.82400        1.2189386E-17
   32.98550        1.2215707E-17
   33.14700        1.2218376E-17
   33.30850        1.2198823E-17
   33.47000        1.2167383E-17
   33.63150        1.2138358E-17
   33.79300        1.2123288E-17
   33.95450        1.2125651E-17
   34.11600        1.2139517E-17
   34.27750        1.2152804E-17
   34.43900        1.2153526E-17
   34.60050        1.2136037E-17
   34.76200        1.2104221E-17
   34.92350        1.2070062E-17
   35.08500        1.2048229E-17
   35.24650        1.2049241E-17
   35.40800        1.2074471E-17
   35.56950        1.2115384E-17
   35.73100        1.2157408E-17
   35.89250        1.2186627E-17
   36.05400        1.2196136E-17
   36.21550        1.2189071E-17
   36.37700        1.2176880E-17
   36.53850        1.2173667E-17
   36.70000        1.2189277E-17
   36.86150        1.2224423E-17
   37.02300        1.2270128E-17
   37.18450        1.2311803E-17
   37.34600        1.2335993E-17
   37.50750        1.2336652E-17
   37.66900        1.2317942E-17
   37.83050        1.2292274E-17
   37.99200        1.2274488E-17
   38.15350        1.2274909E-17
   38.31500        1.2294573E-17
   38.47650        1.2324833E-17
   38.63800        1.2351558E-17
   38.79950        1.2361937E-17
   38.96100        1.2350690E-17
   39.12250        1.2322743E-17
   39.28400        1.2291101E-17
   39.44550        1.2270894E-17
   39.60700        1.2272387E-17
   39.76850        1.2296209E-17
   39.93000        1.2333042E-17
   40.09150        1.2367902E-17
   40.25300        1.2387011E-17
   40.41450        1.2384063E-17
   40.57600        1.2362963E-17
   40.73750        1.2335797E-17
   40.89900        1.2317017E-17
   41.06050        1.2316575E-17
   41.22200        1.2335261E-17
   41.38350        1.2364406E-17
   41.54500        1.2390091E-17
   41.70650        1.2399872E-17
   41.86800        1.2388843E-17
   42.02950        1.2362176E-17
   42.19100        1.2332944E-17
   42.35250        1.2316191E-17
   42.51400        1.2322016E-17
   42.67550        1.2350892E-17
   42.83700        1.2393377E-17
   42.99850        1.2434383E-17
   43.16000        1.2459983E-17
   43.32150        1.2463610E-17
   43.48300        1.2448758E-17
   43.64450        1.2426968E-17
   43.80600        1.2412086E-17
   43.96750        1.2413559E-17
   44.12900        1.2431922E-17
   44.29050        1.2458630E-17
   44.45200        1.2480296E-17
   44.61350        1.2485304E-17
   44.77500        1.2469655E-17
   44.93650        1.2439237E-17
   45.09800        1.2407418E-17
   45.25950        1.2389066E-17
   45.42100        1.2393805E-17
   45.58250        1.2421658E-17
   45.74400        1.2463107E-17
   45.90550        1.2503531E-17
   46.06700        1.2529892E-17
   46.22850        1.2536554E-17
   46.39000        1.2527511E-17
   46.55150        1.2514023E-17
   46.71300        1.2508843E-17
   46.87450        1.2519816E-17
   47.03600        1.2545920E-17
   47.19750        1.2577647E-17
   47.35900        1.2601522E-17
   47.52050        1.2606627E-17
   47.68200        1.2589970E-17
   47.84350        1.2558149E-17
   48.00500        1.2524481E-17
   48.16650        1.2502965E-17
   48.32800        1.2501898E-17
   48.48950        1.2520213E-17
   48.65100        1.2548246E-17
   48.81250        1.2572564E-17
   48.97400        1.2582531E-17
   49.13550        1.2575461E-17
   49.29700        1.2557882E-17
   49.45850        1.2542320E-17
   49.62000        1.2541176E-17
   49.78150        1.2560642E-17
   49.94300        1.2597596E-17
   50.10450        1.2640967E-17
   50.26600        1.2676904E-17
   50.42750        1.2695262E-17
   50.58900        1.2694263E-17
   50.75050        1.2681103E-17
   50.91200        1.2668208E-17
   51.07350        1.2666962E-17
   51.23500        1.2681958E-17
   51.39650        1.2708578E-17
   51.55800        1.2735083E-17
   51.71950        1.2748241E-17
   51.88100        1.2739771E-17
   52.04250        1.2710519E-17
   52.20400        1.2670332E-17
   52.36550        1.2633645E-17
   52.52700        1.2612912E-17
   52.68850        1.2612979E-17
   52.85000        1.2629132E-17
   53.01150        1.2649735E-17
   53.17300        1.2662160E-17
   53.33450        1.2659132E-17
   53.49600        1.2642375E-17
   53.65750        1.2621788E-17
   53.81900        1.2610508E-17
   53.98050        1.2618280E-17
   54.14200        1.2646342E-17
   54.30350        1.2686382E-17
   54.46500        1.2724137E-17
   54.62650        1.2745967E-17
   54.78800        1.2745277E-17
   54.94950        1.2725679E-17
   55.11100        1.2699336E-17
   55.27250        1.2681250E-17
   55.43400        1.2682210E-17
   55.59550        1.2703761E-17
   55.75700        1.2737639E-17
   55.91850        1.2769913E-17
   56.08000        1.2787860E-17
   56.24150        1.2786243E-17
   56.40300        1.2769919E-17
   56.56450        1.2751489E-17
   56.72600        1.2745057E-17
   56.88750        1.2759136E-17
   57.04900        1.2792131E-17
   57.21050        1.2832669E-17
   57.37200        1.2864705E-17
   57.53350        1.2875022E-17
   57.69500        1.2859557E-17
   57.85650        1.2825502E-17
   58.01800        1.2788135E-17
   58.17950        1.2763815E-17
   58.34100        1.2762456E-17
   58.50250        1.2783062E-17
   58.66400        1.2814451E-17
   58.82550        1.2840857E-17
   58.98700        1.2849720E-17
   59.14850        1.2837918E-17
   59.31000        1.2813431E-17
   59.47150        1.2791571E-17
   59.63300        1.2787558E-17
   59.79450        1.2808975E-17
   59.95600        1.2851735E-17
   60.11750        1.2901562E-17
   60.27900        1.2940372E-17
   60.44050        1.2954593E-17
   60.60200        1.2941462E-17
   60.76350        1.2910291E-17
   60.92500        1.2878026E-17
   61.08650        1.2861190E-17
   61.24800        1.2868005E-17
   61.40950        1.2894470E-17
   61.57100        1.2926311E-17
   61.73250        1.2945876E-17
   61.89400        1.2940753E-17
   62.05550        1.2909948E-17
   62.21700        1.2864667E-17
   62.37850        1.2823255E-17
   62.54000        1.2802682E-17
   62.70150        1.2810616E-17
   62.86300        1.2841886E-17
   63.02450        1.2881052E-17
   63.18600        1.2909872E-17
   63.34750        1.2916108E-17
   63.50900        1.2899461E-17
   63.67050        1.2871779E-17
   63.83200        1.2851399E-17
   63.99350        1.2854284E-17
   64.15500        1.2886169E-17
   64.31650        1.2939465E-17
   64.47800        1.2996448E-17
   64.63950        1.3037271E-17
   64.80100        1.3049002E-17
   64.96250        1.3031456E-17
   65.12400        1.2996997E-17
   65.28550        1.2964448E-17
   65.44700        1.2950015E-17
   65.60850        1.2959553E-17
   65.77000        1.2985907E-17
   65.93150        1.3012623E-17
   66.09300        1.3022251E-17
   66.25450        1.3005231E-17
   66.41600        1.2965043E-17
   66.57750        1.2917064E-17
   66.73900        1.2881604E-17
   66.90050        1.2874428E-17
   67.06200        1.2899331E-17
   67.22350        1.2946329E-17
   67.38500        1.2996380E-17
   67.54650        1.3030342E-17
   67.70800        1.3037894E-17
   67.86950        1.3022116E-17
   68.03100        1.2997560E-17
   68.19250        1.2982802E-17
   68.35400        1.2991111E-17
   68.51550        1.3023804E-17
   68.67700        1.3069512E-17
   68.83850        1.3109710E-17
   69.00000        1.3127788E-17
   69.16150        1.3117243E-17
   69.32300        1.3084979E-17
   69.48450        1.3048108E-17
   69.64600        1.3025774E-17
   69.80750        1.3029952E-17
   69.96900        1.3059681E-17
   70.13050        1.3101528E-17
   70.29200        1.3136059E-17
   70.45350        1.3147214E-17
   70.61500        1.3130000E-17
   70.77650        1.3092803E-17
   70.93800        1.3053181E-17
   71.09950        1.3029225E-17
   71.26100        1.3030720E-17
   71.42250        1.3054453E-17
   71.58400        1.3085983E-17
   71.74550        1.3106989E-17
   71.90700        1.3104588E-17
   72.06850        1.3077998E-17
   72.23000        1.3039228E-17
   72.39150        1.3007400E-17
   72.55300        1.2999464E-17
   72.71450        1.3021878E-17
   72.87600        1.3067352E-17
   73.03750        1.3118278E-17
   73.19900        1.3155198E-17
   73.36050        1.3166114E-17
   73.52200        1.3152127E-17
   73.68350        1.3126611E-17
   73.84500        1.3108365E-17
   74.00650        1.3112128E-17
   74.16800        1.3141120E-17
   74.32950        1.3185295E-17
   74.49100        1.3226175E-17
   74.65250        1.3245890E-17
   74.81400        1.3235982E-17
   74.97550        1.3201642E-17
   75.13700        1.3159273E-17
   75.29850        1.3128562E-17
   75.46000        1.3122918E-17
   75.62150        1.3142992E-17
   75.78300        1.3176421E-17
   75.94450        1.3204015E-17
   76.10600        1.3209333E-17
   76.26750        1.3186997E-17
   76.42900        1.3145635E-17
   76.59050        1.3103974E-17
   76.75200        1.3081933E-17
   76.91350        1.3091060E-17
   77.07500        1.3128968E-17
   77.23650        1.3180508E-17
   77.39800        1.3225098E-17
   77.55950        1.3246632E-17
   77.72100        1.3241126E-17
   77.88250        1.3218340E-17
   78.04400        1.3196630E-17
   78.20550        1.3193531E-17
   78.36700        1.3216715E-17
   78.52850        1.3259797E-17
   78.69000        1.3305053E-17
   78.85150        1.3331782E-17
   79.01300        1.3326260E-17
   79.17450        1.3288437E-17
   79.33600        1.3232174E-17
   79.49750        1.3178874E-17
   79.65900        1.3147601E-17
   79.82050        1.3146430E-17
   79.98200        1.3169157E-17
   80.14350        1.3198879E-17
   80.30500        1.3216676E-17
   80.46650        1.3211122E-17
   80.62800        1.3184019E-17
   80.78950        1.3149583E-17
   80.95100        1.3127488E-17
   81.11250        1.3133156E-17
   81.27400        1.3170026E-17
   81.43550        1.3227534E-17
   81.59700        1.3285807E-17
   81.75850        1.3324827E-17
   81.92000        1.3333664E-17
   82.08150        1.3315401E-17
   82.24300        1.3285373E-17
   82.40450        1.3263643E-17
   82.56600        1.3265333E-17
   82.72750        1.3293457E-17
   82.88900        1.3337673E-17
   83.05050        1.3379483E-17
   83.21200        1.3401295E-17
   83.37350        1.3394943E-17
   83.53500        1.3365593E-17
   83.69650        1.3329180E-17
   83.85800        1.3304693E-17
   84.01950        1.3305045E-17
   84.18100        1.3330944E-17
   84.34250        1.3370651E-17
   84.50400        1.3405726E-17
   84.66550        1.3419920E-17
   84.82700        1.3406953E-17
   84.98850        1.3373464E-17
   85.15000        1.3335803E-17
   85.31150        1.3312252E-17
   85.47300        1.3314459E-17
   85.63450        1.3342105E-17
   85.79600        1.3383316E-17
   85.95750        1.3420482E-17
   86.11900        1.3438656E-17
   86.28050        1.3432489E-17
   86.44200        1.3408447E-17
   86.60350        1.3381345E-17
   86.76500        1.3366960E-17
   86.92650        1.3374322E-17
   87.08800        1.3401367E-17
   87.24950        1.3435979E-17
   87.41100        1.3461814E-17
   87.57250        1.3466083E-17
   87.73400        1.3445561E-17
   87.89550        1.3408026E-17
   88.05700        1.3368499E-17
   88.21850        1.3342168E-17
   88.38000        1.3337373E-17
   88.54150        1.3351986E-17
   88.70300        1.3374785E-17
   88.86450        1.3391077E-17
   89.02600        1.3389800E-17
   89.18750        1.3368719E-17
   89.34900        1.3335308E-17
   89.51050        1.3303036E-17
   89.67200        1.3284921E-17
   89.83350        1.3287468E-17
   89.99500        1.3307860E-17
   90.15650        1.3335631E-17
   90.31800        1.3357925E-17
   90.47950        1.3365749E-17
   90.64100        1.3358223E-17
   90.80250        1.3342853E-17
   90.96400        1.3331773E-17
   91.12550        1.3335851E-17
   91.28700        1.3359458E-17
   91.44850        1.3398361E-17
   91.61000        1.3441631E-17
   91.77150        1.3476611E-17
   91.93300        1.3494530E-17
   92.09450        1.3494172E-17
   92.25600        1.3481937E-17
   92.41750        1.3468405E-17
   92.57900        1.3463120E-17
   92.74050        1.3470119E-17
   92.90200        1.3486296E-17
   93.06350        1.3503271E-17
   93.22500        1.3511790E-17
   93.38650        1.3506467E-17
   93.54800        1.3488629E-17
   93.70950        1.3465913E-17
   93.87100        1.3448844E-17
   94.03250        1.3446033E-17
   94.19400        1.3460263E-17
   94.35550        1.3487277E-17
   94.51700        1.3517827E-17
   94.67850        1.3541924E-17
   94.84000        1.3553317E-17
   95.00150        1.3552089E-17
   95.16300        1.3544210E-17
   95.32450        1.3538374E-17
   95.48600        1.3541629E-17
   95.64750        1.3555909E-17
   95.80900        1.3577104E-17
   95.97050        1.3597072E-17
   96.13200        1.3607612E-17
   96.29350        1.3604496E-17
   96.45500        1.3589609E-17
   96.61650        1.3570167E-17
   96.77800        1.3555370E-17
   96.93950        1.3552080E-17
   97.10100        1.3561557E-17
   97.26250        1.3578811E-17
   97.42400        1.3594899E-17
   97.58550        1.3601097E-17
   97.74700        1.3593004E-17
   97.90850        1.3572671E-17
   98.07000        1.3547686E-17
   98.23150        1.3527676E-17
   98.39300        1.3519823E-17
   98.55450        1.3525560E-17
   98.71600        1.3540007E-17
   98.87750        1.3554426E-17
   99.03900        1.3560545E-17
   99.20050        1.3554692E-17
   99.36200        1.3539744E-17
   99.52350        1.3523903E-17
   99.68500        1.3516832E-17
   99.84650        1.3524916E-17
   100.0080        1.3547940E-17
   100.1695        1.3578819E-17
   100.3310        1.3606626E-17
   100.4925        1.3621549E-17
   100.6540        1.3619458E-17
   100.8155        1.3603912E-17
   100.9770        1.3584567E-17
   101.1385        1.3572686E-17
   101.3000        1.3575818E-17
   101.4615        1.3594172E-17
   101.6230        1.3620442E-17
   101.7845        1.3643268E-17
   101.9460        1.3652698E-17
   102.1075        1.3645086E-17
   102.2690        1.3625012E-17
   102.4305        1.3603213E-17
   102.5920        1.3591472E-17
   102.7535        1.3596870E-17
   102.9150        1.3618180E-17
   103.0765        1.3646215E-17
   103.2380        1.3668017E-17
   103.3995        1.3673023E-17
   103.5610        1.3658241E-17
   103.7225        1.3629956E-17
   103.8840        1.3601055E-17
   104.0455        1.3585151E-17
   104.2070        1.3590271E-17
   104.3685        1.3615102E-17
   104.5300        1.3649601E-17
   104.6915        1.3679732E-17
   104.8530        1.3694088E-17
   105.0145        1.3689269E-17
   105.1760        1.3671425E-17
   105.3375        1.3653209E-17
   105.4990        1.3647525E-17
   105.6605        1.3661076E-17
   105.8220        1.3690819E-17
   105.9835        1.3725097E-17
   106.1450        1.3749006E-17
   106.3065        1.3751465E-17
   106.4680        1.3730615E-17
   106.6295        1.3694930E-17
   106.7910        1.3659449E-17
   106.9525        1.3638877E-17
   107.1140        1.3640807E-17
   107.2755        1.3662269E-17
   107.4370        1.3691282E-17
   107.5985        1.3712676E-17
   107.7600        1.3715402E-17
   107.9215        1.3697821E-17
   108.0830        1.3668445E-17
   108.2445        1.3641763E-17
   108.4060        1.3631195E-17
   108.5675        1.3642567E-17
   108.7290        1.3671266E-17
   108.8905        1.3704418E-17
   109.0520        1.3727058E-17
   109.2135        1.3729343E-17
   109.3750        1.3711333E-17
   109.5365        1.3683074E-17
   109.6980        1.3659894E-17
   109.8595        1.3655170E-17
   110.0210        1.3673997E-17
   110.1825        1.3710802E-17
   110.3440        1.3751973E-17
   110.5055        1.3782266E-17
   110.6670        1.3791899E-17
   110.8285        1.3780977E-17
   110.9900        1.3759167E-17
   111.1515        1.3740832E-17
   111.3130        1.3737984E-17
   111.4745        1.3754448E-17
   111.6360        1.3784061E-17
   111.7975        1.3813745E-17
   111.9590        1.3829959E-17
   112.1205        1.3825386E-17
   112.2820        1.3802614E-17
   112.4435        1.3773059E-17
   112.6050        1.3751626E-17
   112.7665        1.3749708E-17
   112.9280        1.3769844E-17
   113.0895        1.3804586E-17
   113.2510        1.3840086E-17
   113.4125        1.3862655E-17
   113.5740        1.3865160E-17
   113.7355        1.3850186E-17
   113.8970        1.3828506E-17
   114.0585        1.3813642E-17
   114.2200        1.3815186E-17
   114.3815        1.3834109E-17
   114.5430        1.3862291E-17
   114.7045        1.3886463E-17
   114.8660        1.3894646E-17
   115.0275        1.3881982E-17
   115.1890        1.3853148E-17
   115.3505        1.3820181E-17
   115.5120        1.3796746E-17
   115.6735        1.3791606E-17
   115.8350        1.3804446E-17
   115.9965        1.3826051E-17
   116.1580        1.3842772E-17
   116.3195        1.3843133E-17
   116.4810        1.3823409E-17
   116.6425        1.3789477E-17
   116.8040        1.3754090E-17
   116.9655        1.3730817E-17
   117.1270        1.3727626E-17
   117.2885        1.3743150E-17
   117.4500        1.3767502E-17
   117.6115        1.3787213E-17
   117.7730        1.3791918E-17
   117.9345        1.3779530E-17
   118.0960        1.3757332E-17
   118.2575        1.3738467E-17
   118.4190        1.3735461E-17
   118.5805        1.3753932E-17
   118.7420        1.3789561E-17