  -27.90000        5.9129273E-18
  -27.73850        5.9152037E-18
  -27.57700        5.9188586E-18
  -27.41550        5.9226996E-18
  -27.25400        5.9259356E-18
  -27.09250        5.9285540E-18
  -26.93100        5.9311472E-18
  -26.76950        5.9343467E-18
  -26.60800        5.9382878E-18
  -26.44650        5.9424870E-18
  -26.28500        5.9461928E-18
  -26.12350        5.9489432E-18
  -25.96200        5.9509057E-18
  -25.80050        5.9527602E-18
  -25.63900        5.9552053E-18
  -25.47750        5.9584442E-18
  -25.31600        5.9620383E-18
  -25.15450        5.9652395E-18
  -24.99300        5.9675498E-18
  -24.83150        5.9691040E-18
  -24.67000        5.9705731E-18
  -24.50850        5.9726613E-18
  -24.34700        5.9755631E-18
  -24.18550        5.9787982E-18
  -24.02400        5.9815419E-18
  -23.86250        5.9832224E-18
  -23.70100        5.9839573E-18
  -23.53950        5.9844995E-18
  -23.37800        5.9857329E-18
  -23.21650        5.9880651E-18
  -23.05500        5.9911360E-18
  -22.89350        5.9940576E-18
  -22.73200        5.9960126E-18
  -22.57050        5.9968067E-18
  -22.40900        5.9969809E-18
  -22.24750        5.9974155E-18
  -22.08600        5.9987150E-18
  -21.92450        6.0008053E-18
  -21.76300        6.0030362E-18
  -21.60150        6.0046943E-18
  -21.44000        6.0055318E-18
  -21.27850        6.0059272E-18
  -21.11700        6.0065563E-18
  -20.95550        6.0078446E-18
  -20.79400        6.0096094E-18
  -20.63250        6.0111765E-18
  -20.47100        6.0118895E-18
  -20.30950        6.0116521E-18
  -20.14800        6.0110996E-18
  -19.98650        6.0112530E-18
  -19.82500        6.0128805E-18
  -19.66350        6.0159882E-18
  -19.50200        6.0198086E-18
  -19.34050        6.0232844E-18
  -19.17900        6.0257262E-18
  -19.01750        6.0271845E-18
  -18.85600        6.0282826E-18
  -18.69450        6.0296566E-18
  -18.53300        6.0314143E-18
  -18.37150        6.0330281E-18
  -18.21000        6.0337176E-18
  -18.04850        6.0330583E-18
  -17.88700        6.0313543E-18
  -17.72550        6.0295135E-18
  -17.56400        6.0285138E-18
  -17.40250        6.0288298E-18
  -17.24100        6.0302195E-18
  -17.07950        6.0320041E-18
  -16.91800        6.0336113E-18
  -16.75650        6.0349981E-18
  -16.59500        6.0366309E-18
  -16.43350        6.0390546E-18
  -16.27200        6.0423712E-18
  -16.11050        6.0460476E-18
  -15.94900        6.0492033E-18
  -15.78750        6.0512030E-18
  -15.62600        6.0521149E-18
  -15.46450        6.0526873E-18
  -15.30300        6.0538388E-18
  -15.14150        6.0560176E-18
  -14.98000        6.0588792E-18
  -14.81850        6.0615088E-18
  -14.65700        6.0630358E-18
  -14.49550        6.0632107E-18
  -14.33400        6.0625515E-18
  -14.17250        6.0619733E-18
  -14.01100        6.0621689E-18
  -13.84950        6.0631747E-18
  -13.68800        6.0644263E-18
  -13.52650        6.0652381E-18
  -13.36500        6.0653593E-18
  -13.20350        6.0651848E-18
  -13.04200        6.0654681E-18
  -12.88050        6.0667465E-18
  -12.71900        6.0689104E-18
  -12.55750        6.0712542E-18
  -12.39600        6.0729715E-18
  -12.23450        6.0737478E-18
  -12.07300        6.0740038E-18
  -11.91150        6.0746151E-18
  -11.75000        6.0763021E-18
  -11.58850        6.0791244E-18
  -11.42700        6.0824365E-18
  -11.26550        6.0853320E-18
  -11.10400        6.0872552E-18
  -10.94250        6.0883558E-18
  -10.78100        6.0893211E-18
  -10.61950        6.0908191E-18
  -10.45800        6.0929483E-18
  -10.29650        6.0951060E-18
  -10.13500        6.0963827E-18
  -9.973500        6.0962165E-18
  -9.812000        6.0948359E-18
  -9.650500        6.0931691E-18
  -9.489000        6.0922828E-18
  -9.327500        6.0927427E-18
  -9.166000        6.0943442E-18
  -9.004500        6.0963703E-18
  -8.843000        6.0981649E-18
  -8.681500        6.0995839E-18
  -8.520000        6.1010013E-18
  -8.358500        6.1028815E-18
  -8.197000        6.1052696E-18
  -8.035500        6.1075923E-18
  -7.874000        6.1089538E-18
  -7.712500        6.1087433E-18
  -7.551000        6.1071117E-18
  -7.389500        6.1049610E-18
  -7.228000        6.1034200E-18
  -7.066500        6.1031416E-18
  -6.905000        6.1039246E-18
  -6.743500        6.1049184E-18
  -6.582000        6.1052840E-18
  -6.420500        6.1048266E-18
  -6.259000        6.1041582E-18
  -6.097500        6.1042765E-18
  -5.936000        6.1058664E-18
  -5.774500        6.1088244E-18
  -5.613000        6.1123337E-18
  -5.451500        6.1154290E-18
  -5.290000        6.1176421E-18
  -5.128500        6.1192770E-18
  -4.967000        6.1211241E-18
  -4.805500        6.1238327E-18
  -4.644000        6.1273871E-18
  -4.482500        6.1310722E-18
  -4.321000        6.1339434E-18
  -4.159500        6.1354670E-18
  -3.998000        6.1358608E-18
  -3.836500        6.1358885E-18
  -3.675000        6.1362826E-18
  -3.513500        6.1372206E-18
  -3.352000        6.1382534E-18
  -3.190500        6.1387232E-18
  -3.029000        6.1383518E-18
  -2.867500        6.1375275E-18
  -2.706000        6.1370718E-18
  -2.544500        6.1376421E-18
  -2.383000        6.1392100E-18
  -2.221500        6.1410116E-18
  -2.060000        6.1420357E-18
  -1.898500        6.1417308E-18
  -1.737000        6.1404301E-18
  -1.575500        6.1391922E-18
  -1.414000        6.1391434E-18
  -1.252500        6.1407701E-18
  -1.091000        6.1436487E-18
 -0.9295000        6.1468006E-18
 -0.7680000        6.1494001E-18
 -0.6065000        6.1513216E-18
 -0.4450000        6.1531373E-18
 -0.2835000        6.1555683E-18
 -0.1220000        6.1588150E-18
  3.9500002E-02    6.1622706E-18
  0.2010000        6.1648398E-18
  0.3625000        6.1656455E-18
  0.5240000        6.1646322E-18
  0.6855000        6.1626420E-18
  0.8470000        6.1609070E-18
   1.008500        6.1603172E-18
   1.170000        6.1609516E-18
   1.331500        6.1621841E-18
   1.493000        6.1632545E-18
   1.654500        6.1638732E-18
   1.816000        6.1644183E-18
   1.977500        6.1655909E-18
   2.139000        6.1678052E-18
   2.300500        6.1707905E-18
   2.462000        6.1737192E-18
   2.623500        6.1757772E-18
   2.785000        6.1767446E-18
   2.946500        6.1771487E-18
   3.108000        6.1778712E-18
   3.269500        6.1794879E-18
   3.431000        6.1818272E-18
   3.592500        6.1840746E-18
   3.754000        6.1853526E-18
   3.915500        6.1853551E-18
   4.077000        6.1845759E-18
   4.238500        6.1839626E-18
   4.400000        6.1842314E-18
   4.561500        6.1853406E-18
   4.723000        6.1865198E-18
   4.884500        6.1868465E-18
   5.046000        6.1859714E-18
   5.207500        6.1844481E-18
   5.369000        6.1834179E-18
   5.530500        6.1838364E-18
   5.692000        6.1857968E-18
   5.853500        6.1884223E-18
   6.015000        6.1904175E-18
   6.176500        6.1908972E-18
   6.338000        6.1899360E-18
   6.499500        6.1884736E-18
   6.661000        6.1876675E-18
   6.822500        6.1881609E-18
   6.984000        6.1897487E-18
   7.145500        6.1916462E-18
   7.307000        6.1931265E-18
   7.468500        6.1940471E-18
   7.630000        6.1948846E-18
   7.791500        6.1962760E-18
   7.953000        6.1984316E-18
   8.114500        6.2008772E-18
   8.276000        6.2027404E-18
   8.437500        6.2033690E-18
   8.599000        6.2028223E-18
   8.760500        6.2018636E-18
   8.922000        6.2014500E-18
   9.083500        6.2021026E-18
   9.245000        6.2036172E-18
   9.406500        6.2053121E-18
   9.568000        6.2066207E-18
   9.729500        6.2075711E-18
   9.891000        6.2087833E-18
   10.05250        6.2109683E-18
   10.21400        6.2142957E-18
   10.37550        6.2181028E-18
   10.53700        6.2212006E-18
   10.69850        6.2225969E-18
   10.86000        6.2221506E-18
   11.02150        6.2206857E-18
   11.18300        6.2194631E-18
   11.34450        6.2193655E-18
   11.50600        6.2203560E-18
   11.66750        6.2215807E-18
   11.82900        6.2220294E-18
   11.99050        6.2212808E-18
   12.15200        6.2198002E-18
   12.31350        6.2185929E-18
   12.47500        6.2184907E-18
   12.63650        6.2195719E-18
   12.79800        6.2211427E-18
   12.95950        6.2222652E-18
   13.12100        6.2224620E-18
   13.28250        6.2220757E-18
   13.44400        6.2220360E-18
   13.60550        6.2231904E-18
   13.76700        6.2256752E-18
   13.92850        6.2287796E-18
   14.09000        6.2313943E-18
   14.25150        6.2327269E-18
   14.41300        6.2327724E-18
   14.57450        6.2322269E-18
   14.73600        6.2319341E-18
   14.89750        6.2322976E-18
   15.05900        6.2330859E-18
   15.22050        6.2337530E-18
   15.38200        6.2339888E-18
   15.54350        6.2340612E-18
   15.70500        6.2346696E-18
   15.86650        6.2364157E-18
   16.02800        6.2392745E-18
   16.18950        6.2424926E-18
   16.35100        6.2450064E-18
   16.51250        6.2461219E-18
   16.67400        6.2459721E-18
   16.83550        6.2454113E-18
   16.99700        6.2454043E-18
   17.15850        6.2463382E-18
   17.32000        6.2477593E-18
   17.48150        6.2487325E-18
   17.64300        6.2485707E-18
   17.80450        6.2474061E-18
   17.96600        6.2461661E-18
   18.12750        6.2459589E-18
   18.28900        6.2472874E-18
   18.45050        6.2496415E-18
   18.61200        6.2517670E-18
   18.77350        6.2524362E-18
   18.93500        6.2512111E-18
   19.09650        6.2486990E-18
   19.25800        6.2461446E-18
   19.41950        6.2446482E-18
   19.58100        6.2445444E-18
   19.74250        6.2453356E-18
   19.90400        6.2461798E-18
   20.06550        6.2465553E-18
   20.22700        6.2466029E-18
   20.38850        6.2469325E-18
   20.55000        6.2480773E-18
   20.71150        6.2500406E-18
   20.87300        6.2522922E-18
   21.03450        6.2541976E-18
   21.19600        6.2555294E-18
   21.35750        6.2566556E-18
   21.51900        6.2582268E-18
   21.68050        6.2606083E-18
   21.84200        6.2634716E-18
   22.00350        6.2659002E-18
   22.16500        6.2669519E-18
   22.32650        6.2663133E-18
   22.48800        6.2645651E-18
   22.64950        6.2628429E-18
   22.81100        6.2621038E-18
   22.97250        6.2625017E-18
   23.13400        6.2633185E-18
   23.29550        6.2635241E-18
   23.45700        6.2625712E-18
   23.61850        6.2608626E-18
   23.78000        6.2595441E-18
   23.94150        6.2597600E-18
   24.10300        6.2618797E-18
   24.26450        6.2652297E-18
   24.42600        6.2684996E-18
   24.58750        6.2705373E-18
   24.74900        6.2709935E-18
   24.91050        6.2704112E-18
   25.07200        6.2697424E-18
   25.23350        6.2696771E-18
   25.39500        6.2702565E-18
   25.55650        6.2710121E-18
   25.71800        6.2714865E-18
   25.87950        6.2716888E-18
   26.04100        6.2721160E-18
   26.20250        6.2733258E-18
   26.36400        6.2753950E-18
   26.52550        6.2777189E-18
   26.68700        6.2793501E-18
   26.84850        6.2796479E-18
   27.01000        6.2787653E-18
   27.17150        6.2775804E-18
   27.33300        6.2770965E-18
   27.49450        6.2777276E-18
   27.65600        6.2789911E-18
   27.81750        6.2798435E-18
   27.97900        6.2794523E-18
   28.14050        6.2778670E-18
   28.30200        6.2760993E-18
   28.46350        6.2755252E-18
   28.62500        6.2769852E-18
   28.78650        6.2801947E-18
   28.94800        6.2838740E-18
   29.10950        6.2865301E-18
   29.27100        6.2873701E-18
   29.43250        6.2867290E-18
   29.59400        6.2857529E-18
   29.75550        6.2855738E-18
   29.91700        6.2865590E-18
   30.07850        6.2881331E-18
   30.24000        6.2892502E-18
   30.40150        6.2891398E-18
   30.56300        6.2878006E-18
   30.72450        6.2859370E-18
   30.88600        6.2844381E-18
   31.04750        6.2838198E-18
   31.20900        6.2840208E-18
   31.37050        6.2846643E-18
   31.53200        6.2855118E-18
   31.69350        6.2867203E-18
   31.85500        6.2886791E-18
   32.01650        6.2915502E-18
   32.17800        6.2949123E-18
   32.33950        6.2978579E-18
   32.50100        6.2995325E-18
   32.66250        6.2997439E-18
   32.82400        6.2991537E-18
   32.98550        6.2988563E-18
   33.14700        6.2995912E-18
   33.30850        6.3011530E-18
   33.47000        6.3024491E-18
   33.63150        6.3022312E-18
   33.79300        6.3000127E-18
   33.95450        6.2965638E-18
   34.11600        6.2935789E-18
   34.27750        6.2927029E-18
   34.43900        6.2945103E-18
   34.60050        6.2981172E-18
   34.76200        6.3016778E-18
   34.92350        6.3034703E-18
   35.08500        6.3028822E-18
   35.24650        6.3006748E-18
   35.40800        6.2984055E-18
   35.56950        6.2974298E-18
   35.73100        6.2981474E-18
   35.89250        6.2999403E-18
   36.05400        6.3017481E-18
   36.21550        6.3028098E-18
   36.37700        6.3030592E-18
   36.53850        6.3029827E-18
   36.70000        6.3031283E-18
   36.86150        6.3037003E-18
   37.02300        6.3045154E-18
   37.18450        6.3052951E-18
   37.34600        6.3059787E-18
   37.50750        6.3067645E-18
   37.66900        6.3078238E-18
   37.83050        6.3089467E-18
   37.99200        6.3094802E-18
   38.15350        6.3087167E-18
   38.31500        6.3065077E-18
   38.47650        6.3036320E-18
   38.63800        6.3015587E-18
   38.79950        6.3016460E-18
   38.96100        6.3042743E-18
   39.12250        6.3085049E-18
   39.28400        6.3125598E-18
   39.44550        6.3148610E-18
   39.60700        6.3149710E-18
   39.76850        6.3138237E-18
   39.93000        6.3130929E-18
   40.09150        6.3140921E-18
   40.25300        6.3169273E-18
   40.41450        6.3204300E-18
   40.57600        6.3228954E-18
   40.73750        6.3231340E-18
   40.89900        6.3211484E-18
   41.06050        6.3180320E-18
   41.22200        6.3152167E-18
   41.38350        6.3136136E-18
   41.54500        6.3132240E-18
   41.70650        6.3134043E-18
   41.86800        6.3135148E-18
   42.02950        6.3134254E-18
   42.19100        6.3135313E-18
   42.35250        6.3143320E-18
   42.51400        6.3159525E-18
   42.67550        6.3179989E-18
   42.83700        6.3198472E-18
   42.99850        6.3211261E-18
   43.16000        6.3219872E-18
   43.32150        6.3229454E-18
   43.48300        6.3243942E-18
   43.64450        6.3261789E-18
   43.80600        6.3275855E-18
   43.96750        6.3277993E-18
   44.12900        6.3265309E-18
   44.29050        6.3243314E-18
   44.45200        6.3223342E-18
   44.61350        6.3215669E-18
   44.77500        6.3222936E-18
   44.93650        6.3238682E-18
   45.09800        6.3251991E-18
   45.25950        6.3254985E-18
   45.42100        6.3247785E-18
   45.58250        6.3237693E-18
   45.74400        6.3233230E-18
   45.90550        6.3237631E-18
   46.06700        6.3246519E-18
   46.22850        6.3251441E-18
   46.39000        6.3246738E-18
   46.55150        6.3234616E-18
   46.71300        6.3224541E-18
   46.87450        6.3227159E-18
   47.03600        6.3246776E-18
   47.19750        6.3277857E-18
   47.35900        6.3308198E-18
   47.52050        6.3326855E-18
   47.68200        6.3331206E-18
   47.84350        6.3328389E-18
   48.00500        6.3329949E-18
   48.16650        6.3343609E-18
   48.32800        6.3367788E-18
   48.48950        6.3392574E-18
   48.65100        6.3406289E-18
   48.81250        6.3402943E-18
   48.97400        6.3385779E-18
   49.13550        6.3364678E-18
   49.29700        6.3349602E-18
   49.45850        6.3344730E-18
   49.62000        6.3347001E-18
   49.78150        6.3349656E-18
   49.94300        6.3347778E-18
   50.10450        6.3341608E-18
   50.26600        6.3335524E-18
   50.42750        6.3333919E-18
   50.58900        6.3337579E-18
   50.75050        6.3343510E-18
   50.91200        6.3348209E-18
   51.07350        6.3351406E-18
   51.23500        6.3356741E-18
   51.39650        6.3368524E-18
   51.55800        6.3386983E-18
   51.71950        6.3405954E-18
   51.88100        6.3415525E-18
   52.04250        6.3408394E-18
   52.20400        6.3385837E-18
   52.36550        6.3358697E-18
   52.52700        6.3342083E-18
   52.68850        6.3346591E-18
   52.85000        6.3371519E-18
   53.01150        6.3404808E-18
   53.17300        6.3430046E-18
   53.33450        6.3436316E-18
   53.49600        6.3424528E-18
   53.65750        6.3406165E-18
   53.81900        6.3395432E-18
   53.98050        6.3400098E-18
   54.14200        6.3416980E-18
   54.30350        6.3434790E-18
   54.46500        6.3441874E-18
   54.62650        6.3433665E-18
   54.78800        6.3415136E-18
   54.94950        6.3397248E-18
   55.11100        6.3390246E-18
   55.27250        6.3398323E-18
   55.43400        6.3418655E-18
   55.59550        6.3444563E-18
   55.75700        6.3469804E-18
   55.91850        6.3490963E-18
   56.08000        6.3506763E-18
   56.24150        6.3516044E-18
   56.40300        6.3517086E-18
   56.56450        6.3509269E-18
   56.72600        6.3495732E-18
   56.88750        6.3483870E-18
   57.04900        6.3482092E-18
   57.21050        6.3494260E-18
   57.37200        6.3515750E-18
   57.53350        6.3534730E-18
   57.69500        6.3538770E-18
   57.85650        6.3523099E-18
   58.01800        6.3494880E-18
   58.17950        6.3470243E-18
   58.34100        6.3465110E-18
   58.50250        6.3485293E-18
   58.66400        6.3522132E-18
   58.82550        6.3556757E-18
   58.98700        6.3570815E-18
   59.14850        6.3557059E-18
   59.31000        6.3523273E-18
   59.47150        6.3487216E-18
   59.63300        6.3465846E-18
   59.79450        6.3465792E-18
   59.95600        6.3480636E-18
   60.11750        6.3496146E-18
   60.27900        6.3499413E-18
   60.44050        6.3486133E-18
   60.60200        6.3462091E-18
   60.76350        6.3439016E-18
   60.92500        6.3428255E-18
   61.08650        6.3436068E-18
   61.24800        6.3462488E-18
   61.40950        6.3502916E-18
   61.57100        6.3550334E-18
   61.73250        6.3596665E-18
   61.89400        6.3633528E-18
   62.05550        6.3653757E-18
   62.21700        6.3654224E-18
   62.37850        6.3638690E-18
   62.54000        6.3618002E-18
   62.70150        6.3605888E-18
   62.86300        6.3611587E-18
   63.02450        6.3633631E-18
   63.18600        6.3659319E-18
   63.34750        6.3671330E-18
   63.50900        6.3658062E-18
   63.67050        6.3621488E-18
   63.83200        6.3577131E-18
   63.99350        6.3545640E-18
   64.15500        6.3540859E-18
   64.31650        6.3561555E-18
   64.47800        6.3592037E-18
   64.63950        6.3611434E-18
   64.80100        6.3606066E-18
   64.96250        6.3577387E-18
   65.12400        6.3540863E-18
   65.28550        6.3516780E-18
   65.44700        6.3518856E-18
   65.60850        6.3547538E-18
   65.77000        6.3591367E-18
   65.93150        6.3634488E-18
   66.09300        6.3665172E-18
   66.25450        6.3680276E-18
   66.41600        6.3684098E-18
   66.57750        6.3683754E-18
   66.73900        6.3684677E-18
   66.90050        6.3688684E-18
   67.06200        6.3694599E-18
   67.22350        6.3699831E-18
   67.38500        6.3701357E-18
   67.54650        6.3695906E-18
   67.70800        6.3680404E-18
   67.86950        6.3653595E-18
   68.03100        6.3618209E-18
   68.19250        6.3581941E-18
   68.35400        6.3555446E-18
   68.51550        6.3547344E-18
   68.67700        6.3559115E-18
   68.83850        6.3583384E-18
   69.00000        6.3607633E-18
   69.16150        6.3621608E-18
   69.32300        6.3623821E-18
   69.48450        6.3622613E-18
   69.64600        6.3630587E-18
   69.80750        6.3655779E-18
   69.96900        6.3695256E-18
   70.13050        6.3735532E-18
   70.29200        6.3759884E-18
   70.45350        6.3758188E-18
   70.61500        6.3733141E-18
   70.77650        6.3699049E-18
   70.93800        6.3673882E-18
   71.09950        6.3669382E-18
   71.26100        6.3685301E-18
   71.42250        6.3710853E-18
   71.58400        6.3732045E-18
   71.74550        6.3739920E-18
   71.90700        6.3734746E-18
   72.06850        6.3724220E-18
   72.23000        6.3717644E-18
   72.39150        6.3720225E-18
   72.55300        6.3730742E-18
   72.71450        6.3743150E-18
   72.87600        6.3750289E-18
   73.03750        6.3747257E-18
   73.19900        6.3732930E-18
   73.36050        6.3709835E-18
   73.52200        6.3683204E-18
   73.68350        6.3659927E-18
   73.84500        6.3647185E-18
   74.00650        6.3650419E-18
   74.16800        6.3670710E-18
   74.32950        6.3702928E-18
   74.49100        6.3736404E-18
   74.65250        6.3758949E-18
   74.81400        6.3762812E-18
   74.97550        6.3749383E-18
   75.13700        6.3729229E-18
   75.29850        6.3716660E-18
   75.46000        6.3721590E-18
   75.62150        6.3743427E-18
   75.78300        6.3770993E-18
   75.94450        6.3788748E-18
   76.10600        6.3785829E-18
   76.26750        6.3762366E-18
   76.42900        6.3729440E-18
   76.59050        6.3702726E-18
   76.75200        6.3693614E-18
   76.91350        6.3703102E-18
   77.07500        6.3721788E-18
   77.23650        6.3735635E-18
   77.39800        6.3733840E-18
   77.55950        6.3714257E-18
   77.72100        6.3683494E-18
   77.88250        6.3652454E-18
   78.04400        6.3630496E-18
   78.20550        6.3621650E-18
   78.36700        6.3624317E-18
   78.52850        6.3633611E-18
   78.69000        6.3644348E-18
   78.85150        6.3653058E-18
   79.01300        6.3658707E-18
   79.17450        6.3662632E-18
   79.33600        6.3668100E-18
   79.49750        6.3679453E-18
   79.65900        6.3700513E-18
   79.82050        6.3732438E-18
   79.98200        6.3771903E-18
   80.14350        6.3811066E-18
   80.30500        6.3840021E-18
   80.46650        6.3851072E-18
   80.62800        6.3842718E-18
   80.78950        6.3820806E-18
   80.95100        6.3795626E-18
   81.11250        6.3776390E-18
   81.27400        6.3766274E-18
   81.43550        6.3761352E-18
   81.59700        6.3754172E-18
   81.75850        6.3739676E-18
   81.92000        6.3719447E-18
   82.08150        6.3701485E-18
   82.24300        6.3695484E-18
   82.40450        6.3706638E-18
   82.56600        6.3731913E-18
   82.72750        6.3761150E-18
   82.88900        6.3782301E-18
   83.05050        6.3787719E-18
   83.21200        6.3777780E-18
   83.37350        6.3759896E-18
   83.53500        6.3743866E-18
   83.69650        6.3736591E-18
   83.85800        6.3739262E-18
   84.01950        6.3748184E-18
   84.18100        6.3758023E-18
   84.34250        6.3764959E-18
   84.50400        6.3768044E-18
   84.66550        6.3768516E-18
   84.82700        6.3768408E-18
   84.98850        6.3769496E-18
   85.15000        6.3772962E-18
   85.31150        6.3779211E-18
   85.47300        6.3787458E-18
   85.63450        6.3795209E-18
   85.79600        6.3798534E-18
   85.95750        6.3793654E-18
   86.11900        6.3779281E-18
   86.28050        6.3758424E-18
   86.44200        6.3738088E-18
   86.60350        6.3726280E-18
   86.76500        6.3727719E-18
   86.92650        6.3740747E-18
   87.08800        6.3757750E-18
   87.24950        6.3769401E-18
   87.41100        6.3770290E-18
   87.57250        6.3762374E-18
   87.73400        6.3753841E-18
   87.89550        6.3753924E-18
   88.05700        6.3767006E-18
   88.21850        6.3789712E-18
   88.38000        6.3812811E-18
   88.54150        6.3826464E-18
   88.70300        6.3825562E-18
   88.86450        6.3811831E-18
   89.02600        6.3791888E-18
   89.18750        6.3772829E-18
   89.34900        6.3758407E-18
   89.51050        6.3748175E-18
   89.67200        6.3739577E-18
   89.83350        6.3731181E-18
   89.99500        6.3724348E-18
   90.15650        6.3722181E-18
   90.31800        6.3726859E-18
   90.47950        6.3737550E-18
   90.64100        6.3750649E-18
   90.80250        6.3762088E-18
   90.96400        6.3769905E-18
   91.12550        6.3775129E-18
   91.28700        6.3780506E-18
   91.44850        6.3788293E-18
   91.61000        6.3798857E-18
   91.77150        6.3810983E-18
   91.93300        6.3823407E-18
   92.09450        6.3836096E-18
   92.25600        6.3850183E-18
   92.41750        6.3866611E-18
   92.57900        6.3884706E-18
   92.74050        6.3901977E-18
   92.90200        6.3915576E-18
   93.06350        6.3924319E-18
   93.22500        6.3929448E-18
   93.38650        6.3933232E-18
   93.54800        6.3936177E-18
   93.70950        6.3935255E-18
   93.87100        6.3924989E-18
   94.03250        6.3901344E-18
   94.19400        6.3865780E-18
   94.35550        6.3826360E-18
   94.51700        6.3794460E-18
   94.67850        6.3778752E-18
   94.84000        6.3780109E-18
   95.00150        6.3790837E-18
   95.16300        6.3799051E-18
   95.32450        6.3795614E-18
   95.48600        6.3779517E-18
   95.64750        6.3758234E-18
   95.80900        6.3742919E-18
   95.97050        6.3741421E-18
   96.13200        6.3753585E-18
   96.29350        6.3771593E-18
   96.45500        6.3784972E-18
   96.61650        6.3786689E-18
   96.77800        6.3776688E-18
   96.93950        6.3760935E-18
   97.10100        6.3747365E-18
   97.26250        6.3741736E-18
   97.42400        6.3745710E-18
   97.58550        6.3757713E-18
   97.74700        6.3774901E-18
   97.90850        6.3794551E-18
   98.07000        6.3814275E-18
   98.23150        6.3831617E-18
   98.39300        6.3844343E-18
   98.55450        6.3851647E-18
   98.71600        6.3855382E-18
   98.87750        6.3859845E-18
   99.03900        6.3869283E-18
   99.20050        6.3884354E-18
   99.36200        6.3900041E-18
   99.52350        6.3907288E-18
   99.68500        6.3898036E-18
   99.84650        6.3870995E-18
   100.0080        6.3833896E-18
   100.1695        6.3800362E-18
   100.3310        6.3782656E-18
   100.4925        6.3784861E-18
   100.6540        6.3800850E-18
   100.8155        6.3818461E-18
   100.9770        6.3827237E-18
   101.1385        6.3824723E-18
   101.3000        6.3817315E-18
   101.4615        6.3815280E-18
   101.6230        6.3825277E-18
   101.7845        6.3845505E-18
   101.9460        6.3866586E-18
   102.1075        6.3877584E-18
   102.2690        6.3872918E-18
   102.4305        6.3855796E-18
   102.5920        6.3835844E-18
   102.7535        6.3823118E-18
   102.9150        6.3822559E-18
   103.0765        6.3832349E-18
   103.2380        6.3846577E-18
   103.3995        6.3859547E-18
   103.5610        6.3868600E-18
   103.7225        6.3873754E-18
   103.8840        6.3875499E-18
   104.0455        6.3873084E-18
   104.2070        6.3864977E-18
   104.3685        6.3850969E-18
   104.5300        6.3833850E-18
   104.6915        6.3818622E-18
   104.8530        6.3809333E-18
   105.0145        6.3805871E-18
   105.1760        6.3803423E-18
   105.3375        6.3795709E-18
   105.4990        6.3780133E-18
   105.6605        6.3760968E-18
   105.8220        6.3747758E-18
   105.9835        6.3749515E-18
   106.1450        6.3768313E-18
   106.3065        6.3797012E-18
   106.4680        6.3822990E-18
   106.6295        6.3835757E-18
   106.7910        6.3833429E-18
   106.9525        6.3823713E-18
   107.1140        6.3818750E-18
   107.2755        6.3827154E-18
   107.4370        6.3848628E-18
   107.5985        6.3874428E-18
   107.7600        6.3893242E-18
   107.9215        6.3898317E-18
   108.0830        6.3891087E-18
   108.2445        6.3879192E-18
   108.4060        6.3870805E-18
   108.5675        6.3869523E-18
   108.7290        6.3873290E-18
   108.8905        6.3877571E-18
   109.0520        6.3879639E-18
   109.2135        6.3880475E-18
   109.3750        6.3882799E-18
   109.5365        6.3887278E-18
   109.6980        6.3890351E-18
   109.8595        6.3885859E-18
   110.0210        6.3869647E-18
   110.1825        6.3843582E-18
   110.3440        6.3815777E-18
   110.5055        6.3796321E-18
   110.6670        6.3791280E-18
   110.8285        6.3799117E-18
   110.9900        6.3812220E-18
   111.1515        6.3822485E-18
   111.3130        6.3827188E-18
   111.4745        6.3830600E-18
   111.6360        6.3840393E-18
   111.7975        6.3861189E-18
   111.9590        6.3890045E-18
   112.1205        6.3917222E-18
   112.2820        6.3931760E-18
   112.4435        6.3928029E-18
   112.6050        6.3908739E-18
   112.7665        6.3882600E-18
   112.9280        6.3858571E-18
   113.0895        6.3840836E-18
   113.2510        6.3827837E-18
   113.4125        6.3815566E-18
   113.5740        6.3802132E-18
   113.7355        6.3789956E-18
   113.8970        6.3783943E-18
   114.0585        6.3787169E-18
   114.2200        6.3797670E-18
   114.3815        6.3809006E-18
   114.5430        6.3814449E-18
   114.7045        6.3811678E-18
   114.8660        6.3804345E-18
   115.0275        6.3799262E-18
   115.1890        6.3801301E-18
   115.3505        6.3809854E-18
   115.5120        6.3819528E-18
   115.6735        6.3824570E-18
   115.8350        6.3823635E-18
   115.9965        6.3821157E-18
   116.1580        6.3824131E-18
   116.3195        6.3836700E-18
   116.4810        6.3856561E-18
   116.6425        6.3876128E-18
   116.8040        6.3887828E-18
   116.9655        6.3889789E-18
   117.1270        6.3887617E-18
   117.2885        6.3890678E-18
   117.4500        6.3905187E-18
   117.6115        6.3929005E-18
   117.7730        6.3951922E-18
   117.9345        6.3961501E-18
   118.0960        6.3950777E-18
   118.2575        6.3922541E-18
   118.4190        6.3887514E-18
   118.5805        6.3857682E-18
   118.7420        6.3839240E-18