  -27.90000       -2.8395216E-18
  -27.73850       -2.8447376E-18
  -27.57700       -2.8531188E-18
  -27.41550       -2.8616133E-18
  -27.25400       -2.8675527E-18
  -27.09250       -2.8698347E-18
  -26.93100       -2.8693576E-18
  -26.76950       -2.8685091E-18
  -26.60800       -2.8699569E-18
  -26.44650       -2.8753166E-18
  -26.28500       -2.8843343E-18
  -26.12350       -2.8949677E-18
  -25.96200       -2.9043215E-18
  -25.80050       -2.9100013E-18
  -25.63900       -2.9112351E-18
  -25.47750       -2.9092393E-18
  -25.31600       -2.9066498E-18
  -25.15450       -2.9062968E-18
  -24.99300       -2.9098940E-18
  -24.83150       -2.9172656E-18
  -24.67000       -2.9264610E-18
  -24.50850       -2.9346958E-18
  -24.34700       -2.9396700E-18
  -24.18550       -2.9406389E-18
  -24.02400       -2.9387405E-18
  -23.86250       -2.9364349E-18
  -23.70100       -2.9363284E-18
  -23.53950       -2.9399436E-18
  -23.37800       -2.9470104E-18
  -23.21650       -2.9556112E-18
  -23.05500       -2.9630993E-18
  -22.89350       -2.9673522E-18
  -22.73200       -2.9677718E-18
  -22.57050       -2.9655533E-18
  -22.40900       -2.9631047E-18
  -22.24750       -2.9628987E-18
  -22.08600       -2.9662937E-18
  -21.92450       -2.9728952E-18
  -21.76300       -2.9807478E-18
  -21.60150       -2.9872751E-18
  -21.44000       -2.9905073E-18
  -21.27850       -2.9900164E-18
  -21.11700       -2.9871086E-18
  -20.95550       -2.9841897E-18
  -20.79400       -2.9836119E-18
  -20.63250       -2.9865664E-18
  -20.47100       -2.9925418E-18
  -20.30950       -2.9996125E-18
  -20.14800       -3.0053920E-18
  -19.98650       -3.0081899E-18
  -19.82500       -3.0078130E-18
  -19.66350       -3.0056189E-18
  -19.50200       -3.0038208E-18
  -19.34050       -3.0043872E-18
  -19.17900       -3.0080758E-18
  -19.01750       -3.0140621E-18
  -18.85600       -3.0203454E-18
  -18.69450       -3.0247100E-18
  -18.53300       -3.0257899E-18
  -18.37150       -3.0237201E-18
  -18.21000       -3.0200697E-18
  -18.04850       -3.0171030E-18
  -17.88700       -3.0167178E-18
  -17.72550       -3.0195707E-18
  -17.56400       -3.0247989E-18
  -17.40250       -3.0304653E-18
  -17.24100       -3.0345148E-18
  -17.07950       -3.0357715E-18
  -16.91800       -3.0345057E-18
  -16.75650       -3.0322913E-18
  -16.59500       -3.0312176E-18
  -16.43350       -3.0328437E-18
  -16.27200       -3.0373952E-18
  -16.11050       -3.0436084E-18
  -15.94900       -3.0493089E-18
  -15.78750       -3.0524437E-18
  -15.62600       -3.0520847E-18
  -15.46450       -3.0488905E-18
  -15.30300       -3.0448125E-18
  -15.14150       -3.0421664E-18
  -14.98000       -3.0425335E-18
  -14.81850       -3.0460246E-18
  -14.65700       -3.0512662E-18
  -14.49550       -3.0561158E-18
  -14.33400       -3.0587493E-18
  -14.17250       -3.0585847E-18
  -14.01100       -3.0565842E-18
  -13.84950       -3.0547881E-18
  -13.68800       -3.0553111E-18
  -13.52650       -3.0592841E-18
  -13.36500       -3.0662673E-18
  -13.20350       -3.0744070E-18
  -13.04200       -3.0812765E-18
  -12.88050       -3.0849875E-18
  -12.71900       -3.0850580E-18
  -12.55750       -3.0826178E-18
  -12.39600       -3.0798618E-18
  -12.23450       -3.0790043E-18
  -12.07300       -3.0812263E-18
  -11.91150       -3.0861106E-18
  -11.75000       -3.0918282E-18
  -11.58850       -3.0960010E-18
  -11.42700       -3.0968374E-18
  -11.26550       -3.0940093E-18
  -11.10400       -3.0888504E-18
  -10.94250       -3.0837705E-18
  -10.78100       -3.0811458E-18
  -10.61950       -3.0822104E-18
  -10.45800       -3.0864739E-18
  -10.29650       -3.0919517E-18
  -10.13500       -3.0961207E-18
  -9.973500       -3.0971400E-18
  -9.812000       -3.0947699E-18
  -9.650500       -3.0905228E-18
  -9.489000       -3.0869657E-18
  -9.327500       -3.0864973E-18
  -9.166000       -3.0901898E-18
  -9.004500       -3.0972475E-18
  -8.843000       -3.1053595E-18
  -8.681500       -3.1117732E-18
  -8.520000       -3.1145873E-18
  -8.358500       -3.1136362E-18
  -8.197000       -3.1105511E-18
  -8.035500       -3.1079715E-18
  -7.874000       -3.1082780E-18
  -7.712500       -3.1124635E-18
  -7.551000       -3.1196629E-18
  -7.389500       -3.1275620E-18
  -7.228000       -3.1334915E-18
  -7.066500       -3.1356779E-18
  -6.905000       -3.1340779E-18
  -6.743500       -3.1304020E-18
  -6.582000       -3.1273269E-18
  -6.420500       -3.1272686E-18
  -6.259000       -3.1312771E-18
  -6.097500       -3.1385590E-18
  -5.936000       -3.1468521E-18
  -5.774500       -3.1534693E-18
  -5.613000       -3.1565376E-18
  -5.451500       -3.1558514E-18
  -5.290000       -3.1529472E-18
  -5.128500       -3.1503579E-18
  -4.967000       -3.1504013E-18
  -4.805500       -3.1540606E-18
  -4.644000       -3.1604989E-18
  -4.482500       -3.1674365E-18
  -4.321000       -3.1722234E-18
  -4.159500       -3.1731054E-18
  -3.998000       -3.1700750E-18
  -3.836500       -3.1648989E-18
  -3.675000       -3.1603021E-18
  -3.513500       -3.1586897E-18
  -3.352000       -3.1610267E-18
  -3.190500       -3.1664046E-18
  -3.029000       -3.1724995E-18
  -2.867500       -3.1766976E-18
  -2.706000       -3.1773414E-18
  -2.544500       -3.1744944E-18
  -2.383000       -3.1698771E-18
  -2.221500       -3.1660152E-18
  -2.060000       -3.1650195E-18
  -1.898500       -3.1675858E-18
  -1.737000       -3.1726810E-18
  -1.575500       -3.1780461E-18
  -1.414000       -3.1812727E-18
  -1.252500       -3.1809311E-18
  -1.091000       -3.1772342E-18
 -0.9295000       -3.1719299E-18
 -0.7680000       -3.1674994E-18
 -0.6065000       -3.1660299E-18
 -0.4450000       -3.1682957E-18
 -0.2835000       -3.1734553E-18
 -0.1220000       -3.1794933E-18
  3.9500002E-02   -3.1841997E-18
  0.2010000       -3.1862170E-18
  0.3625000       -3.1856729E-18
  0.5240000       -3.1840955E-18
  0.6855000       -3.1836457E-18
  0.8470000       -3.1860327E-18
   1.008500       -3.1916414E-18
   1.170000       -3.1992869E-18
   1.331500       -3.2067313E-18
   1.493000       -3.2117268E-18
   1.654500       -3.2130782E-18
   1.816000       -3.2112181E-18
   1.977500       -3.2079921E-18
   2.139000       -3.2057711E-18
   2.300500       -3.2063040E-18
   2.462000       -3.2098866E-18
   2.623500       -3.2152486E-18
   2.785000       -3.2202098E-18
   2.946500       -3.2227757E-18
   3.108000       -3.2221270E-18
   3.269500       -3.2190162E-18
   3.431000       -3.2153999E-18
   3.592500       -3.2134970E-18
   3.754000       -3.2147425E-18
   3.915500       -3.2191489E-18
   4.077000       -3.2253639E-18
   4.238500       -3.2313742E-18
   4.400000       -3.2355004E-18
   4.561500       -3.2371970E-18
   4.723000       -3.2372751E-18
   4.884500       -3.2374621E-18
   5.046000       -3.2395193E-18
   5.207500       -3.2443380E-18
   5.369000       -3.2514489E-18
   5.530500       -3.2591683E-18
   5.692000       -3.2653197E-18
   5.853500       -3.2682055E-18
   6.015000       -3.2673733E-18
   6.176500       -3.2638194E-18
   6.338000       -3.2595282E-18
   6.499500       -3.2565466E-18
   6.661000       -3.2560335E-18
   6.822500       -3.2577371E-18
   6.984000       -3.2601694E-18
   7.145500       -3.2613988E-18
   7.307000       -3.2600846E-18
   7.468500       -3.2562360E-18
   7.630000       -3.2513064E-18
   7.791500       -3.2475436E-18
   7.953000       -3.2469070E-18
   8.114500       -3.2500735E-18
   8.276000       -3.2560461E-18
   8.437500       -3.2625683E-18
   8.599000       -3.2671661E-18
   8.760500       -3.2682998E-18
   8.922000       -3.2660629E-18
   9.083500       -3.2620868E-18
   9.245000       -3.2587078E-18
   9.406500       -3.2578140E-18
   9.568000       -3.2599413E-18
   9.729500       -3.2640601E-18
   9.891000       -3.2681339E-18
   10.05250       -3.2701744E-18
   10.21400       -3.2692591E-18
   10.37550       -3.2660255E-18
   10.53700       -3.2624005E-18
   10.69850       -3.2606984E-18
   10.86000       -3.2625215E-18
   11.02150       -3.2679819E-18
   11.18300       -3.2756096E-18
   11.34450       -3.2829907E-18
   11.50600       -3.2878490E-18
   11.66750       -3.2890792E-18
   11.82900       -3.2872480E-18
   11.99050       -3.2843345E-18
   12.15200       -3.2828075E-18
   12.31350       -3.2844633E-18
   12.47500       -3.2895575E-18
   12.63650       -3.2966593E-18
   12.79800       -3.3033088E-18
   12.95950       -3.3071835E-18
   13.12100       -3.3072253E-18
   13.28250       -3.3041781E-18
   13.44400       -3.3002664E-18
   13.60550       -3.2981403E-18
   13.76700       -3.2995995E-18
   13.92850       -3.3047063E-18
   14.09000       -3.3117392E-18
   14.25150       -3.3180142E-18
   14.41300       -3.3211864E-18
   14.57450       -3.3203985E-18
   14.73600       -3.3166979E-18
   14.89750       -3.3125322E-18
   15.05900       -3.3105623E-18
   15.22050       -3.3123745E-18
   15.38200       -3.3177236E-18
   15.54350       -3.3246484E-18
   15.70500       -3.3303991E-18
   15.86650       -3.3327194E-18
   16.02800       -3.3308673E-18
   16.18950       -3.3259164E-18
   16.35100       -3.3202083E-18
   16.51250       -3.3162415E-18
   16.67400       -3.3155285E-18
   16.83550       -3.3179536E-18
   16.99700       -3.3219092E-18
   17.15850       -3.3251246E-18
   17.32000       -3.3257971E-18
   17.48150       -3.3234880E-18
   17.64300       -3.3193829E-18
   17.80450       -3.3157977E-18
   17.96600       -3.3151451E-18
   18.12750       -3.3188351E-18
   18.28900       -3.3266152E-18
   18.45050       -3.3366466E-18
   18.61200       -3.3463029E-18
   18.77350       -3.3533091E-18
   18.93500       -3.3567080E-18
   19.09650       -3.3571921E-18
   19.25800       -3.3566572E-18
   19.41950       -3.3571996E-18
   19.58100       -3.3600378E-18
   19.74250       -3.3648897E-18
   19.90400       -3.3701086E-18
   20.06550       -3.3735074E-18
   20.22700       -3.3734638E-18
   20.38850       -3.3697566E-18
   20.55000       -3.3637223E-18
   20.71150       -3.3576628E-18
   20.87300       -3.3537955E-18
   21.03450       -3.3532744E-18
   21.19600       -3.3557373E-18
   21.35750       -3.3595763E-18
   21.51900       -3.3627700E-18
   21.68050       -3.3638555E-18
   21.84200       -3.3625841E-18
   22.00350       -3.3599708E-18
   22.16500       -3.3577422E-18
   22.32650       -3.3574717E-18
   22.48800       -3.3598164E-18
   22.64950       -3.3642006E-18
   22.81100       -3.3690824E-18
   22.97250       -3.3726619E-18
   23.13400       -3.3737043E-18
   23.29550       -3.3720965E-18
   23.45700       -3.3689038E-18
   23.61850       -3.3658839E-18
   23.78000       -3.3646829E-18
   23.94150       -3.3660696E-18
   24.10300       -3.3695696E-18
   24.26450       -3.3736888E-18
   24.42600       -3.3766451E-18
   24.58750       -3.3772604E-18
   24.74900       -3.3755830E-18
   24.91050       -3.3729123E-18
   25.07200       -3.3711858E-18
   25.23350       -3.3720237E-18
   25.39500       -3.3758899E-18
   25.55650       -3.3818163E-18
   25.71800       -3.3878446E-18
   25.87950       -3.3919784E-18
   26.04100       -3.3931772E-18
   26.20250       -3.3918775E-18
   26.36400       -3.3897646E-18
   26.52550       -3.3889009E-18
   26.68700       -3.3906615E-18
   26.84850       -3.3950123E-18
   27.01000       -3.4005031E-18
   27.17150       -3.4049645E-18
   27.33300       -3.4065684E-18
   27.49450       -3.4047188E-18
   27.65600       -3.4003592E-18
   27.81750       -3.3955470E-18
   27.97900       -3.3925150E-18
   28.14050       -3.3926554E-18
   28.30200       -3.3958965E-18
   28.46350       -3.4007544E-18
   28.62500       -3.4050290E-18
   28.78650       -3.4068383E-18
   28.94800       -3.4055144E-18
   29.10950       -3.4019635E-18
   29.27100       -3.3983051E-18
   29.43250       -3.3969229E-18
   29.59400       -3.3993275E-18
   29.75550       -3.4053578E-18
   29.91700       -3.4131155E-18
   30.07850       -3.4197429E-18
   30.24000       -3.4227261E-18
   30.40150       -3.4211322E-18
   30.56300       -3.4161672E-18
   30.72450       -3.4107111E-18
   30.88600       -3.4080019E-18
   31.04750       -3.4100719E-18
   31.20900       -3.4167105E-18
   31.37050       -3.4254997E-18
   31.53200       -3.4329673E-18
   31.69350       -3.4363072E-18
   31.85500       -3.4348212E-18
   32.01650       -3.4303321E-18
   32.17800       -3.4263238E-18
   32.33950       -3.4262160E-18
   32.50100       -3.4316212E-18
   32.66250       -3.4414647E-18
   32.82400       -3.4524083E-18
   32.98550       -3.4603854E-18
   33.14700       -3.4624928E-18
   33.30850       -3.4583350E-18
   33.47000       -3.4501937E-18
   33.63150       -3.4419440E-18
   33.79300       -3.4372498E-18
   33.95450       -3.4378793E-18
   34.11600       -3.4429284E-18
   34.27750       -3.4492946E-18
   34.43900       -3.4531891E-18
   34.60050       -3.4519767E-18
   34.76200       -3.4454984E-18
   34.92350       -3.4362574E-18
   35.08500       -3.4283470E-18
   35.24650       -3.4255942E-18
   35.40800       -3.4297518E-18
   35.56950       -3.4395884E-18
   35.73100       -3.4513588E-18
   35.89250       -3.4604766E-18
   36.05400       -3.4636501E-18
   36.21550       -3.4604501E-18
   36.37700       -3.4535351E-18
   36.53850       -3.4473554E-18
   36.70000       -3.4459488E-18
   36.86150       -3.4508980E-18
   37.02300       -3.4604801E-18
   37.18450       -3.4704598E-18
   37.34600       -3.4761645E-18
   37.50750       -3.4748100E-18
   37.66900       -3.4669152E-18
   37.83050       -3.4560845E-18
   37.99200       -3.4472566E-18
   38.15350       -3.4443067E-18
   38.31500       -3.4481839E-18
   38.47650       -3.4565212E-18
   38.63800       -3.4648685E-18
   38.79950       -3.4689258E-18
   38.96100       -3.4666558E-18
   39.12250       -3.4592677E-18
   39.28400       -3.4506160E-18
   39.44550       -3.4453522E-18
   39.60700       -3.4467239E-18
   39.76850       -3.4550652E-18
   39.93000       -3.4676662E-18
   40.09150       -3.4800580E-18
   40.25300       -3.4880916E-18
   40.41450       -3.4898229E-18
   40.57600       -3.4863396E-18
   40.73750       -3.4811363E-18
   40.89900       -3.4783536E-18
   41.06050       -3.4807049E-18
   41.22200       -3.4880916E-18
   41.38350       -3.4975831E-18
   41.54500       -3.5048056E-18
   41.70650       -3.5060840E-18
   41.86800       -3.5003103E-18
   42.02950       -3.4895892E-18
   42.19100       -3.4783085E-18
   42.35250       -3.4710604E-18
   42.51400       -3.4704350E-18
   42.67550       -3.4757985E-18
   42.83700       -3.4836778E-18
   42.99850       -3.4895598E-18
   43.16000       -3.4901902E-18
   43.32150       -3.4852052E-18
   43.48300       -3.4772655E-18
   43.64450       -3.4706538E-18
   43.80600       -3.4690588E-18
   43.96750       -3.4736904E-18
   44.12900       -3.4826814E-18
   44.29050       -3.4920418E-18
   44.45200       -3.4976732E-18
   44.61350       -3.4973891E-18
   44.77500       -3.4919587E-18
   44.93650       -3.4846849E-18
   45.09800       -3.4797710E-18
   45.25950       -3.4802946E-18
   45.42100       -3.4867751E-18
   45.58250       -3.4969900E-18
   45.74400       -3.5070870E-18
   45.90550       -3.5134418E-18
   46.06700       -3.5143637E-18
   46.22850       -3.5108461E-18
   46.39000       -3.5060174E-18
   46.55150       -3.5035533E-18
   46.71300       -3.5058230E-18
   46.87450       -3.5126556E-18
   47.03600       -3.5213538E-18
   47.19750       -3.5279758E-18
   47.35900       -3.5292873E-18
   47.52050       -3.5244375E-18
   47.68200       -3.5155069E-18
   47.84350       -3.5066072E-18
   48.00500       -3.5019183E-18
   48.16650       -3.5036194E-18
   48.32800       -3.5107836E-18
   48.48950       -3.5198090E-18
   48.65100       -3.5262387E-18
   48.81250       -3.5270448E-18
   48.97400       -3.5222149E-18
   49.13550       -3.5148021E-18
   49.29700       -3.5093927E-18
   49.45850       -3.5097621E-18
   49.62000       -3.5169069E-18
   49.78150       -3.5284799E-18
   49.94300       -3.5399211E-18
   50.10450       -3.5467205E-18
   50.26600       -3.5466634E-18
   50.42750       -3.5409137E-18
   50.58900       -3.5334037E-18
   50.75050       -3.5288352E-18
   50.91200       -3.5303051E-18
   51.07350       -3.5377439E-18
   51.23500       -3.5479187E-18
   51.39650       -3.5559953E-18
   51.55800       -3.5578895E-18
   51.71950       -3.5522655E-18
   51.88100       -3.5412334E-18
   52.04250       -3.5293882E-18
   52.20400       -3.5216689E-18
   52.36550       -3.5210270E-18
   52.52700       -3.5270320E-18
   52.68850       -3.5360921E-18
   52.85000       -3.5431996E-18
   53.01150       -3.5444032E-18
   53.17300       -3.5388147E-18
   53.33450       -3.5291669E-18
   53.49600       -3.5206027E-18
   53.65750       -3.5182146E-18
   53.81900       -3.5244900E-18
   53.98050       -3.5379081E-18
   54.14200       -3.5534442E-18
   54.30350       -3.5648105E-18
   54.46500       -3.5674062E-18
   54.62650       -3.5605456E-18
   54.78800       -3.5478360E-18
   54.94950       -3.5354721E-18
   55.11100       -3.5292368E-18
   55.27250       -3.5316766E-18
   55.43400       -3.5408550E-18
   55.59550       -3.5513333E-18
   55.75700       -3.5569230E-18
   55.91850       -3.5538607E-18
   56.08000       -3.5428150E-18
   56.24150       -3.5287045E-18
   56.40300       -3.5183776E-18
   56.56450       -3.5172758E-18
   56.72600       -3.5267329E-18
   56.88750       -3.5432331E-18
   57.04900       -3.5600191E-18
   57.21050       -3.5702679E-18
   57.37200       -3.5703129E-18
   57.53350       -3.5613513E-18
   57.69500       -3.5488282E-18
   57.85650       -3.5397883E-18
   58.01800       -3.5394583E-18
   58.17950       -3.5487099E-18
   58.34100       -3.5636206E-18
   58.50250       -3.5773597E-18
   58.66400       -3.5835065E-18
   58.82550       -3.5792122E-18
   58.98700       -3.5666642E-18
   59.14850       -3.5521294E-18
   59.31000       -3.5429866E-18
   59.47150       -3.5441612E-18
   59.63300       -3.5556801E-18
   59.79450       -3.5725616E-18
   59.95600       -3.5871585E-18
   60.11750       -3.5928520E-18
   60.27900       -3.5873165E-18
   60.44050       -3.5737238E-18
   60.60200       -3.5592378E-18
   60.76350       -3.5515169E-18
   60.92500       -3.5549208E-18
   61.08650       -3.5683190E-18
   61.24800       -3.5856261E-18
   61.40950       -3.5987986E-18
   61.57100       -3.6018413E-18
   61.73250       -3.5937929E-18
   61.89400       -3.5792039E-18
   62.05550       -3.5658470E-18
   62.21700       -3.5607950E-18
   62.37850       -3.5668528E-18
   62.54000       -3.5811312E-18
   62.70150       -3.5964845E-18
   62.86300       -3.6050868E-18
   63.02450       -3.6023509E-18
   63.18600       -3.5892339E-18
   63.34750       -3.5718056E-18
   63.50900       -3.5582919E-18
   63.67050       -3.5550684E-18
   63.83200       -3.5635727E-18
   63.99350       -3.5796328E-18
   64.15500       -3.5955345E-18
   64.31650       -3.6038067E-18
   64.47800       -3.6008640E-18
   64.63950       -3.5887309E-18
   64.80100       -3.5739922E-18
   64.96250       -3.5644937E-18
   65.12400       -3.5654040E-18
   65.28550       -3.5765788E-18
   65.44700       -3.5925596E-18
   65.60850       -3.6052270E-18
   65.77000       -3.6078578E-18
   65.93150       -3.5985810E-18
   66.09300       -3.5814869E-18
   66.25450       -3.5647729E-18
   66.41600       -3.5567782E-18
   66.57750       -3.5618476E-18
   66.73900       -3.5781190E-18
   66.90050       -3.5983755E-18
   67.06200       -3.6136076E-18
   67.22350       -3.6174928E-18
   67.38500       -3.6095478E-18
   67.54650       -3.5953323E-18
   67.70800       -3.5835677E-18
   67.86950       -3.5816222E-18
   68.03100       -3.5916621E-18
   68.19250       -3.6094531E-18
   68.35400       -3.6264392E-18
   68.51550       -3.6340700E-18
   68.67700       -3.6281660E-18
   68.83850       -3.6111025E-18
   69.00000       -3.5907038E-18
   69.16150       -3.5764179E-18
   69.32300       -3.5746929E-18
   69.48450       -3.5858722E-18
   69.64600       -3.6041194E-18
   69.80750       -3.6203760E-18
   69.96900       -3.6268602E-18
   70.13050       -3.6208843E-18
   70.29200       -3.6061113E-18
   70.45350       -3.5906761E-18
   70.61500       -3.5830999E-18
   70.77650       -3.5880192E-18
   70.93800       -3.6038336E-18
   71.09950       -3.6234109E-18
   71.26100       -3.6375238E-18
   71.42250       -3.6393565E-18
   71.58400       -3.6278839E-18
   71.74550       -3.6084547E-18
   71.90700       -3.5902534E-18
   72.06850       -3.5818376E-18
   72.23000       -3.5869169E-18
   72.39150       -3.6024812E-18
   72.55300       -3.6202639E-18
   72.71450       -3.6308692E-18
   72.87600       -3.6285216E-18
   73.03750       -3.6140522E-18
   73.19900       -3.5945655E-18
   73.36050       -3.5799153E-18
   73.52200       -3.5777485E-18
   73.68350       -3.5896297E-18
   73.84500       -3.6102323E-18
   74.00650       -3.6300362E-18
   74.16800       -3.6401642E-18
   74.32950       -3.6368844E-18
   74.49100       -3.6234684E-18
   74.65250       -3.6084534E-18
   74.81400       -3.6012259E-18
   74.97550       -3.6071940E-18
   75.13700       -3.6250148E-18
   75.29850       -3.6472519E-18
   75.46000       -3.6640759E-18
   75.62150       -3.6681134E-18
   75.78300       -3.6580061E-18
   75.94450       -3.6389623E-18
   76.10600       -3.6200865E-18
   76.26750       -3.6098712E-18
   76.42900       -3.6120976E-18
   76.59050       -3.6241483E-18
   76.75200       -3.6384925E-18
   76.91350       -3.6465732E-18
   77.07500       -3.6431379E-18
   77.23650       -3.6288980E-18
   77.39800       -3.6102182E-18
   77.55950       -3.5960072E-18
   77.72100       -3.5933292E-18
   77.88250       -3.6038729E-18
   78.04400       -3.6230321E-18
   78.20550       -3.6420829E-18
   78.36700       -3.6524127E-18
   78.52850       -3.6497409E-18
   78.69000       -3.6362045E-18
   78.85150       -3.6192527E-18
   79.01300       -3.6078649E-18
   79.17450       -3.6080009E-18
   79.33600       -3.6195926E-18
   79.49750       -3.6366189E-18
   79.65900       -3.6502331E-18
   79.82050       -3.6533445E-18
   79.98200       -3.6442956E-18
   80.14350       -3.6277466E-18
   80.30500       -3.6123048E-18
   80.46650       -3.6061410E-18
   80.62800       -3.6128548E-18
   80.78950       -3.6296991E-18
   80.95100       -3.6490423E-18
   81.11250       -3.6622454E-18
   81.27400       -3.6639477E-18
   81.43550       -3.6545807E-18
   81.59700       -3.6399367E-18
   81.75850       -3.6280890E-18
   81.92000       -3.6253151E-18
   82.08150       -3.6330505E-18
   82.24300       -3.6473532E-18
   82.40450       -3.6610431E-18
   82.56600       -3.6673813E-18
   82.72750       -3.6634390E-18
   82.88900       -3.6515073E-18
   83.05050       -3.6379151E-18
   83.21200       -3.6298778E-18
   83.37350       -3.6319478E-18
   83.53500       -3.6437955E-18
   83.69650       -3.6603846E-18
   83.85800       -3.6744430E-18
   84.01950       -3.6800211E-18
   84.18100       -3.6753955E-18
   84.34250       -3.6638737E-18
   84.50400       -3.6520872E-18
   84.66550       -3.6465976E-18
   84.82700       -3.6505337E-18
   84.98850       -3.6619770E-18
   85.15000       -3.6749476E-18
   85.31150       -3.6824989E-18
   85.47300       -3.6803292E-18
   85.63450       -3.6690345E-18
   85.79600       -3.6538168E-18
   85.95750       -3.6418066E-18
   86.11900       -3.6383804E-18
   86.28050       -3.6444238E-18
   86.44200       -3.6559547E-18
   86.60350       -3.6662936E-18
   86.76500       -3.6696065E-18
   86.92650       -3.6639457E-18
   87.08800       -3.6521943E-18
   87.24950       -3.6404823E-18
   87.41100       -3.6349637E-18
   87.57250       -3.6386720E-18
   87.73400       -3.6500577E-18
   87.89550       -3.6638964E-18
   88.05700       -3.6740046E-18
   88.21850       -3.6763290E-18
   88.38000       -3.6708514E-18
   88.54150       -3.6614004E-18
   88.70300       -3.6535587E-18
   88.86450       -3.6517675E-18
   89.02600       -3.6570958E-18
   89.18750       -3.6667498E-18
   89.34900       -3.6755105E-18
   89.51050       -3.6783477E-18
   89.67200       -3.6729239E-18
   89.83350       -3.6607780E-18
   89.99500       -3.6466410E-18
   90.15650       -3.6362210E-18
   90.31800       -3.6335240E-18
   90.47950       -3.6390016E-18
   90.64100       -3.6494340E-18
   90.80250       -3.6596063E-18
   90.96400       -3.6649565E-18
   91.12550       -3.6638621E-18
   91.28700       -3.6584011E-18
   91.44850       -3.6532051E-18
   91.61000       -3.6529772E-18
   91.77150       -3.6599628E-18
   91.93300       -3.6726811E-18
   92.09450       -3.6865839E-18
   92.25600       -3.6962959E-18
   92.41750       -3.6982799E-18
   92.57900       -3.6925475E-18
   92.74050       -3.6825518E-18
   92.90200       -3.6733515E-18
   93.06350       -3.6690630E-18
   93.22500       -3.6709287E-18
   93.38650       -3.6769622E-18
   93.54800       -3.6832500E-18
   93.70950       -3.6861162E-18
   93.87100       -3.6839944E-18
   94.03250       -3.6780780E-18
   94.19400       -3.6715317E-18
   94.35550       -3.6677825E-18
   94.51700       -3.6688211E-18
   94.67850       -3.6743421E-18
   94.84000       -3.6820621E-18
   95.00150       -3.6889315E-18
   95.16300       -3.6925864E-18
   95.32450       -3.6923258E-18
   95.48600       -3.6892375E-18
   95.64750       -3.6855289E-18
   95.80900       -3.6834555E-18
   95.97050       -3.6843539E-18
   96.13200       -3.6881700E-18
   96.29350       -3.6936187E-18
   96.45500       -3.6988473E-18
   96.61650       -3.7022793E-18
   96.77800       -3.7032599E-18
   96.93950       -3.7022292E-18
   97.10100       -3.7003734E-18
   97.26250       -3.6989590E-18
   97.42400       -3.6987005E-18
   97.58550       -3.6994702E-18
   97.74700       -3.7004653E-18
   97.90850       -3.7007089E-18
   98.07000       -3.6995847E-18
   98.23150       -3.6971189E-18
   98.39300       -3.6938813E-18
   98.55450       -3.6906123E-18
   98.71600       -3.6878379E-18
   98.87750       -3.6857146E-18
   99.03900       -3.6841640E-18
   99.20050       -3.6831458E-18
   99.36200       -3.6827992E-18
   99.52350       -3.6833232E-18
   99.68500       -3.6846727E-18
   99.84650       -3.6863383E-18
   100.0080       -3.6874599E-18
   100.1695       -3.6872841E-18
   100.3310       -3.6857142E-18
   100.4925       -3.6835660E-18
   100.6540       -3.6822876E-18
   100.8155       -3.6832190E-18
   100.9770       -3.6867829E-18
   101.1385       -3.6921029E-18
   101.3000       -3.6973360E-18
   101.4615       -3.7006142E-18
   101.6230       -3.7010877E-18
   101.7845       -3.6994635E-18
   101.9460       -3.6976801E-18
   102.1075       -3.6978605E-18
   102.2690       -3.7010956E-18
   102.4305       -3.7067419E-18
   102.5920       -3.7126335E-18
   102.7535       -3.7161209E-18
   102.9150       -3.7154075E-18
   103.0765       -3.7105023E-18
   103.2380       -3.7033041E-18
   103.3995       -3.6967669E-18
   103.5610       -3.6935471E-18
   103.7225       -3.6947879E-18
   103.8840       -3.6996220E-18
   104.0455       -3.7056351E-18
   104.2070       -3.7100630E-18
   104.3685       -3.7111553E-18
   104.5300       -3.7090411E-18
   104.6915       -3.7056810E-18
   104.8530       -3.7039018E-18
   105.0145       -3.7059383E-18
   105.1760       -3.7121893E-18
   105.3375       -3.7208094E-18
   105.4990       -3.7284318E-18
   105.6605       -3.7317331E-18
   105.8220       -3.7291130E-18
   105.9835       -3.7216179E-18
   106.1450       -3.7125657E-18
   106.3065       -3.7059846E-18
   106.4680       -3.7046198E-18
   106.6295       -3.7085187E-18
   106.7910       -3.7149794E-18
   106.9525       -3.7199206E-18
   107.1140       -3.7200206E-18
   107.2755       -3.7145013E-18
   107.4370       -3.7056070E-18
   107.5985       -3.6974725E-18
   107.7600       -3.6939690E-18
   107.9215       -3.6966482E-18
   108.0830       -3.7039018E-18
   108.2445       -3.7117873E-18
   108.4060       -3.7160886E-18
   108.5675       -3.7145129E-18
   108.7290       -3.7078785E-18
   108.8905       -3.6997001E-18
   109.0520       -3.6943983E-18
   109.2135       -3.6950725E-18
   109.3750       -3.7019707E-18
   109.5365       -3.7124143E-18
   109.6980       -3.7221788E-18
   109.8595       -3.7276129E-18
   110.0210       -3.7274119E-18
   110.1825       -3.7231763E-18
   110.3440       -3.7185052E-18
   110.5055       -3.7171135E-18
   110.6670       -3.7209310E-18
   110.8285       -3.7291085E-18
   110.9900       -3.7384138E-18
   111.1515       -3.7448232E-18
   111.3130       -3.7455243E-18
   111.4745       -3.7403548E-18
   111.6360       -3.7319507E-18
   111.7975       -3.7244845E-18
   111.9590       -3.7216196E-18
   112.1205       -3.7246777E-18
   112.2820       -3.7319800E-18
   112.4435       -3.7396964E-18
   112.6050       -3.7438083E-18
   112.7665       -3.7421742E-18
   112.9280       -3.7356419E-18
   113.0895       -3.7276154E-18
   113.2510       -3.7222863E-18
   113.4125       -3.7224339E-18
   113.5740       -3.7279607E-18
   113.7355       -3.7359430E-18
   113.8970       -3.7421837E-18
   114.0585       -3.7434485E-18
   114.2200       -3.7391744E-18
   114.3815       -3.7317534E-18
   114.5430       -3.7252596E-18
   114.7045       -3.7233145E-18
   114.8660       -3.7272171E-18
   115.0275       -3.7353011E-18
   115.1890       -3.7438116E-18
   115.3505       -3.7488107E-18
   115.5120       -3.7481208E-18
   115.6735       -3.7423334E-18
   115.8350       -3.7344099E-18
   115.9965       -3.7281311E-18
   116.1580       -3.7262319E-18
   116.3195       -3.7291370E-18
   116.4810       -3.7348929E-18
   116.6425       -3.7402489E-18
   116.8040       -3.7423115E-18
   116.9655       -3.7399511E-18
   117.1270       -3.7343176E-18
   117.2885       -3.7282316E-18
   117.4500       -3.7247802E-18
   117.6115       -3.7257803E-18
   117.7730       -3.7308596E-18
   117.9345       -3.7376110E-18
   118.0960       -3.7427420E-18
   118.2575       -3.7436681E-18
   118.4190       -3.7397609E-18
   118.5805       -3.7326351E-18
   118.7420       -3.7253452E-18