  -27.90000        5.9187300E-18
  -27.73850        5.9209708E-18
  -27.57700        5.9245831E-18
  -27.41550        5.9284097E-18
  -27.25400        5.9316787E-18
  -27.09250        5.9343732E-18
  -26.93100        5.9370574E-18
  -26.76950        5.9403322E-18
  -26.60800        5.9443168E-18
  -26.44650        5.9485308E-18
  -26.28500        5.9522374E-18
  -26.12350        5.9549857E-18
  -25.96200        5.9569528E-18
  -25.80050        5.9588247E-18
  -25.63900        5.9613062E-18
  -25.47750        5.9646046E-18
  -25.31600        5.9682773E-18
  -25.15450        5.9715550E-18
  -24.99300        5.9739116E-18
  -24.83150        5.9754609E-18
  -24.67000        5.9768820E-18
  -24.50850        5.9789185E-18
  -24.34700        5.9818199E-18
  -24.18550        5.9851344E-18
  -24.02400        5.9880146E-18
  -23.86250        5.9898208E-18
  -23.70100        5.9905963E-18
  -23.53950        5.9910649E-18
  -23.37800        5.9921522E-18
  -23.21650        5.9943570E-18
  -23.05500        5.9974052E-18
  -22.89350        6.0004319E-18
  -22.73200        6.0025623E-18
  -22.57050        6.0034945E-18
  -22.40900        6.0036831E-18
  -22.24750        6.0039999E-18
  -22.08600        6.0051232E-18
  -21.92450        6.0070878E-18
  -21.76300        6.0093158E-18
  -21.60150        6.0110802E-18
  -21.44000        6.0120496E-18
  -21.27850        6.0125050E-18
  -21.11700        6.0130794E-18
  -20.95550        6.0142334E-18
  -20.79400        6.0158741E-18
  -20.63250        6.0174110E-18
  -20.47100        6.0182212E-18
  -20.30950        6.0181774E-18
  -20.14800        6.0178486E-18
  -19.98650        6.0181918E-18
  -19.82500        6.0199339E-18
  -19.66350        6.0230610E-18
  -19.50200        6.0267796E-18
  -19.34050        6.0300003E-18
  -19.17900        6.0320132E-18
  -19.01750        6.0328970E-18
  -18.85600        6.0333743E-18
  -18.69450        6.0342255E-18
  -18.53300        6.0356904E-18
  -18.37150        6.0372952E-18
  -18.21000        6.0382224E-18
  -18.04850        6.0379561E-18
  -17.88700        6.0367261E-18
  -17.72550        6.0354303E-18
  -17.56400        6.0350899E-18
  -17.40250        6.0362128E-18
  -17.24100        6.0385086E-18
  -17.07950        6.0411453E-18
  -16.91800        6.0433447E-18
  -16.75650        6.0449011E-18
  -16.59500        6.0462481E-18
  -16.43350        6.0480394E-18
  -16.27200        6.0505656E-18
  -16.11050        6.0534558E-18
  -15.94900        6.0558922E-18
  -15.78750        6.0572046E-18
  -15.62600        6.0574006E-18
  -15.46450        6.0572240E-18
  -15.30300        6.0576835E-18
  -15.14150        6.0593660E-18
  -14.98000        6.0620332E-18
  -14.81850        6.0647791E-18
  -14.65700        6.0666477E-18
  -14.49550        6.0672767E-18
  -14.33400        6.0671158E-18
  -14.17250        6.0670914E-18
  -14.01100        6.0679439E-18
  -13.84950        6.0697227E-18
  -13.68800        6.0717828E-18
  -13.52650        6.0732775E-18
  -13.36500        6.0737933E-18
  -13.20350        6.0736493E-18
  -13.04200        6.0736588E-18
  -12.88050        6.0745150E-18
  -12.71900        6.0762682E-18
  -12.55750        6.0782906E-18
  -12.39600        6.0797510E-18
  -12.23450        6.0802577E-18
  -12.07300        6.0801919E-18
  -11.91150        6.0804707E-18
  -11.75000        6.0819116E-18
  -11.58850        6.0846446E-18
  -11.42700        6.0880013E-18
  -11.26550        6.0909556E-18
  -11.10400        6.0928155E-18
  -10.94250        6.0936812E-18
  -10.78100        6.0943384E-18
  -10.61950        6.0956751E-18
  -10.45800        6.0980251E-18
  -10.29650        6.1009128E-18
  -10.13500        6.1033794E-18
  -9.973500        6.1046711E-18
  -9.812000        6.1047832E-18
  -9.650500        6.1044767E-18
  -9.489000        6.1047559E-18
  -9.327500        6.1061873E-18
  -9.166000        6.1085452E-18
  -9.004500        6.1110176E-18
  -8.843000        6.1128023E-18
  -8.681500        6.1136423E-18
  -8.520000        6.1139194E-18
  -8.358500        6.1142647E-18
  -8.197000        6.1149943E-18
  -8.035500        6.1158136E-18
  -7.874000        6.1160200E-18
  -7.712500        6.1150675E-18
  -7.551000        6.1130686E-18
  -7.389500        6.1108410E-18
  -7.228000        6.1094282E-18
  -7.066500        6.1094096E-18
  -6.905000        6.1104969E-18
  -6.743500        6.1117294E-18
  -6.582000        6.1121463E-18
  -6.420500        6.1114718E-18
  -6.259000        6.1103274E-18
  -6.097500        6.1098091E-18
  -5.936000        6.1107294E-18
  -5.774500        6.1130612E-18
  -5.613000        6.1159654E-18
  -5.451500        6.1183837E-18
  -5.290000        6.1197675E-18
  -5.128500        6.1204438E-18
  -4.967000        6.1213611E-18
  -4.805500        6.1234067E-18
  -4.644000        6.1267746E-18
  -4.482500        6.1308232E-18
  -4.321000        6.1345100E-18
  -4.159500        6.1370924E-18
  -3.998000        6.1385797E-18
  -3.836500        6.1396323E-18
  -3.675000        6.1409980E-18
  -3.513500        6.1429232E-18
  -3.352000        6.1449779E-18
  -3.190500        6.1464205E-18
  -3.029000        6.1468114E-18
  -2.867500        6.1464003E-18
  -2.706000        6.1459875E-18
  -2.544500        6.1463535E-18
  -2.383000        6.1476808E-18
  -2.221500        6.1494017E-18
  -2.060000        6.1505941E-18
  -1.898500        6.1506619E-18
  -1.737000        6.1498107E-18
  -1.575500        6.1489629E-18
  -1.414000        6.1491614E-18
  -1.252500        6.1508617E-18
  -1.091000        6.1536241E-18
 -0.9295000        6.1564232E-18
 -0.7680000        6.1583712E-18
 -0.6065000        6.1593246E-18
 -0.4450000        6.1599491E-18
 -0.2835000        6.1611874E-18
 -0.1220000        6.1635233E-18
  3.9500002E-02    6.1665752E-18
  0.2010000        6.1693210E-18
  0.3625000        6.1707872E-18
  0.5240000        6.1707198E-18
  0.6855000        6.1697611E-18
  0.8470000        6.1690195E-18
   1.008500        6.1693392E-18
   1.170000        6.1707748E-18
   1.331500        6.1726343E-18
   1.493000        6.1740393E-18
   1.654500        6.1745852E-18
   1.816000        6.1746320E-18
   1.977500        6.1750116E-18
   2.139000        6.1763922E-18
   2.300500        6.1787588E-18
   2.462000        6.1814210E-18
   2.623500        6.1835246E-18
   2.785000        6.1846830E-18
   2.946500        6.1852592E-18
   3.108000        6.1860764E-18
   3.269500        6.1877800E-18
   3.431000        6.1903219E-18
   3.592500        6.1929528E-18
   3.754000        6.1947316E-18
   3.915500        6.1951907E-18
   4.077000        6.1946659E-18
   4.238500        6.1940558E-18
   4.400000        6.1941683E-18
   4.561500        6.1951299E-18
   4.723000        6.1962913E-18
   4.884500        6.1967156E-18
   5.046000        6.1959066E-18
   5.207500        6.1942452E-18
   5.369000        6.1928014E-18
   5.530500        6.1926252E-18
   5.692000        6.1940149E-18
   5.853500        6.1962838E-18
   6.015000        6.1981905E-18
   6.176500        6.1987488E-18
   6.338000        6.1978522E-18
   6.499500        6.1962950E-18
   6.661000        6.1952002E-18
   6.822500        6.1952697E-18
   6.984000        6.1963727E-18
   7.145500        6.1977355E-18
   7.307000        6.1985677E-18
   7.468500        6.1986595E-18
   7.630000        6.1985180E-18
   7.791500        6.1989507E-18
   7.953000        6.2004247E-18
   8.114500        6.2026771E-18
   8.276000        6.2048786E-18
   8.437500        6.2062315E-18
   8.599000        6.2065516E-18
   8.760500        6.2064056E-18
   8.922000        6.2066927E-18
   9.083500        6.2079876E-18
   9.245000        6.2101321E-18
   9.406500        6.2123783E-18
   9.568000        6.2139735E-18
   9.729500        6.2147535E-18
   9.891000        6.2152953E-18
   10.05250        6.2165076E-18
   10.21400        6.2189341E-18
   10.37550        6.2222792E-18
   10.53700        6.2255106E-18
   10.69850        6.2274975E-18
   10.86000        6.2277576E-18
   11.02150        6.2267898E-18
   11.18300        6.2257501E-18
   11.34450        6.2256810E-18
   11.50600        6.2268370E-18
   11.66750        6.2285629E-18
   11.82900        6.2298078E-18
   11.99050        6.2298913E-18
   12.15200        6.2289831E-18
   12.31350        6.2279636E-18
   12.47500        6.2277949E-18
   12.63650        6.2288541E-18
   12.79800        6.2307040E-18
   12.95950        6.2324424E-18
   13.12100        6.2333655E-18
   13.28250        6.2334610E-18
   13.44400        6.2333866E-18
   13.60550        6.2339602E-18
   13.76700        6.2355356E-18
   13.92850        6.2377235E-18
   14.09000        6.2396562E-18
   14.25150        6.2406046E-18
   14.41300        6.2404772E-18
   14.57450        6.2398518E-18
   14.73600        6.2395251E-18
   14.89750        6.2399321E-18
   15.05900        6.2408800E-18
   15.22050        6.2417912E-18
   15.38200        6.2422465E-18
   15.54350        6.2424029E-18
   15.70500        6.2429426E-18
   15.86650        6.2445668E-18
   16.02800        6.2474044E-18
   16.18950        6.2507839E-18
   16.35100        6.2535772E-18
   16.51250        6.2549131E-18
   16.67400        6.2547758E-18
   16.83550        6.2540454E-18
   16.99700        6.2539313E-18
   17.15850        6.2551510E-18
   17.32000        6.2574336E-18
   17.48150        6.2597046E-18
   17.64300        6.2608329E-18
   17.80450        6.2604333E-18
   17.96600        6.2591578E-18
   18.12750        6.2582674E-18
   18.28900        6.2587753E-18
   18.45050        6.2607452E-18
   18.61200        6.2632222E-18
   18.77350        6.2648190E-18
   18.93500        6.2645829E-18
   19.09650        6.2625522E-18
   19.25800        6.2596802E-18
   19.41950        6.2572032E-18
   19.58100        6.2559111E-18
   19.74250        6.2557866E-18
   19.90400        6.2562155E-18
   20.06550        6.2565423E-18
   20.22700        6.2565394E-18
   20.38850        6.2564558E-18
   20.55000        6.2566701E-18
   20.71150        6.2572747E-18
   20.87300        6.2579584E-18
   21.03450        6.2582876E-18
   21.19600        6.2581437E-18
   21.35750        6.2579398E-18
   21.51900        6.2583848E-18
   21.68050        6.2599424E-18
   21.84200        6.2623818E-18
   22.00350        6.2647917E-18
   22.16500        6.2661132E-18
   22.32650        6.2658576E-18
   22.48800        6.2645159E-18
   22.64950        6.2633247E-18
   22.81100        6.2635084E-18
   22.97250        6.2654659E-18
   23.13400        6.2684735E-18
   23.29550        6.2711255E-18
   23.45700        6.2722484E-18
   23.61850        6.2716776E-18
   23.78000        6.2703732E-18
   23.94150        6.2697958E-18
   24.10300        6.2709513E-18
   24.26450        6.2737600E-18
   24.42600        6.2771296E-18
   24.58750        6.2796665E-18
   24.74900        6.2805322E-18
   24.91050        6.2798775E-18
   25.07200        6.2786288E-18
   25.23350        6.2778186E-18
   25.39500        6.2779563E-18
   25.55650        6.2788464E-18
   25.71800        6.2799258E-18
   25.87950        6.2808039E-18
   26.04100        6.2815707E-18
   26.20250        6.2826510E-18
   26.36400        6.2843360E-18
   26.52550        6.2864039E-18
   26.68700        6.2881691E-18
   26.84850        6.2889491E-18
   27.01000        6.2885984E-18
   27.17150        6.2876873E-18
   27.33300        6.2871513E-18
   27.49450        6.2876389E-18
   27.65600        6.2890364E-18
   27.81750        6.2905274E-18
   27.97900        6.2911664E-18
   28.14050        6.2905779E-18
   28.30200        6.2892763E-18
   28.46350        6.2883623E-18
   28.62500        6.2887721E-18
   28.78650        6.2906027E-18
   28.94800        6.2929850E-18
   29.10950        6.2946306E-18
   29.27100        6.2946807E-18
   29.43250        6.2932823E-18
   29.59400        6.2914828E-18
   29.75550        6.2905138E-18
   29.91700        6.2909712E-18
   30.07850        6.2924552E-18
   30.24000        6.2938957E-18
   30.40150        6.2943246E-18
   30.56300        6.2935317E-18
   30.72450        6.2921632E-18
   30.88600        6.2912235E-18
   31.04750        6.2913624E-18
   31.20900        6.2924614E-18
   31.37050        6.2938014E-18
   31.53200        6.2946645E-18
   31.69350        6.2949135E-18
   31.85500        6.2951050E-18
   32.01650        6.2960501E-18
   32.17800        6.2981536E-18
   32.33950        6.3010252E-18
   32.50100        6.3036899E-18
   32.66250        6.3052413E-18
   32.82400        6.3054795E-18
   32.98550        6.3050436E-18
   33.14700        6.3049373E-18
   33.30850        6.3057901E-18
   33.47000        6.3073907E-18
   33.63150        6.3088379E-18
   33.79300        6.3092101E-18
   33.95450        6.3082684E-18
   34.11600        6.3066951E-18
   34.27750        6.3056669E-18
   34.43900        6.3060569E-18
   34.60050        6.3078122E-18
   34.76200        6.3099426E-18
   34.92350        6.3111565E-18
   35.08500        6.3107048E-18
   35.24650        6.3088602E-18
   35.40800        6.3067137E-18
   35.56950        6.3054419E-18
   35.73100        6.3055689E-18
   35.89250        6.3067273E-18
   36.05400        6.3080405E-18
   36.21550        6.3088052E-18
   36.37700        6.3089599E-18
   36.53850        6.3090240E-18
   36.70000        6.3095943E-18
   36.86150        6.3108210E-18
   37.02300        6.3122690E-18
   37.18450        6.3132670E-18
   37.34600        6.3134726E-18
   37.50750        6.3131901E-18
   37.66900        6.3131810E-18
   37.83050        6.3140723E-18
   37.99200        6.3158085E-18
   38.15350        6.3175940E-18
   38.31500        6.3184141E-18
   38.47650        6.3178049E-18
   38.63800        6.3162887E-18
   38.79950        6.3151327E-18
   38.96100        6.3155397E-18
   39.12250        6.3178198E-18
   39.28400        6.3211256E-18
   39.44550        6.3239620E-18
   39.60700        6.3251412E-18
   39.76850        6.3245440E-18
   39.93000        6.3231820E-18
   40.09150        6.3225050E-18
   40.25300        6.3234430E-18
   40.41450        6.3257976E-18
   40.57600        6.3283953E-18
   40.73750        6.3298652E-18
   40.89900        6.3295058E-18
   41.06050        6.3276645E-18
   41.22200        6.3253976E-18
   41.38350        6.3237164E-18
   41.54500        6.3229574E-18
   41.70650        6.3227192E-18
   41.86800        6.3223495E-18
   42.02950        6.3215554E-18
   42.19100        6.3206657E-18
   42.35250        6.3203444E-18
   42.51400        6.3210140E-18
   42.67550        6.3224529E-18
   42.83700        6.3238996E-18
   42.99850        6.3246023E-18
   43.16000        6.3243984E-18
   43.32150        6.3238756E-18
   43.48300        6.3239670E-18
   43.64450        6.3252500E-18
   43.80600        6.3274631E-18
   43.96750        6.3296133E-18
   44.12900        6.3306395E-18
   44.29050        6.3301676E-18
   44.45200        6.3288155E-18
   44.61350        6.3278080E-18
   44.77500        6.3281554E-18
   44.93650        6.3299806E-18
   45.09800        6.3324717E-18
   45.25950        6.3344871E-18
   45.42100        6.3353738E-18
   45.58250        6.3354032E-18
   45.74400        6.3355256E-18
   45.90550        6.3366241E-18
   46.06700        6.3388257E-18
   46.22850        6.3413759E-18
   46.39000        6.3431659E-18
   46.55150        6.3435518E-18
   46.71300        6.3428561E-18
   46.87450        6.3421815E-18
   47.03600        6.3426398E-18
   47.19750        6.3445361E-18
   47.35900        6.3470975E-18
   47.52050        6.3489578E-18
   47.68200        6.3490827E-18
   47.84350        6.3474804E-18
   48.00500        6.3452090E-18
   48.16650        6.3436680E-18
   48.32800        6.3436705E-18
   48.48950        6.3449319E-18
   48.65100        6.3462972E-18
   48.81250        6.3465292E-18
   48.97400        6.3451019E-18
   49.13550        6.3424839E-18
   49.29700        6.3397641E-18
   49.45850        6.3379282E-18
   49.62000        6.3372950E-18
   49.78150        6.3374745E-18
   49.94300        6.3378070E-18
   50.10450        6.3378992E-18
   50.26600        6.3378467E-18
   50.42750        6.3380113E-18
   50.58900        6.3385841E-18
   50.75050        6.3393480E-18
   50.91200        6.3398629E-18
   51.07350        6.3399242E-18
   51.23500        6.3398948E-18
   51.39650        6.3405565E-18
   51.55800        6.3425289E-18
   51.71950        6.3456544E-18
   51.88100        6.3488585E-18
   52.04250        6.3506750E-18
   52.20400        6.3501646E-18
   52.36550        6.3476227E-18
   52.52700        6.3445576E-18
   52.68850        6.3428730E-18
   52.85000        6.3437267E-18
   53.01150        6.3467964E-18
   53.17300        6.3504480E-18
   53.33450        6.3527359E-18
   53.49600        6.3526069E-18
   53.65750        6.3505294E-18
   53.81900        6.3481513E-18
   53.98050        6.3472265E-18
   54.14200        6.3485239E-18
   54.30350        6.3514104E-18
   54.46500        6.3543316E-18
   54.62650        6.3558188E-18
   54.78800        6.3553536E-18
   54.94950        6.3535701E-18
   55.11100        6.3517528E-18
   55.27250        6.3510303E-18
   55.43400        6.3518021E-18
   55.59550        6.3537095E-18
   55.75700        6.3560488E-18
   55.91850        6.3582433E-18
   56.08000        6.3600337E-18
   56.24150        6.3613270E-18
   56.40300        6.3619429E-18
   56.56450        6.3615818E-18
   56.72600        6.3600991E-18
   56.88750        6.3578467E-18
   57.04900        6.3557216E-18
   57.21050        6.3547410E-18
   57.37200        6.3553668E-18
   57.53350        6.3570592E-18
   57.69500        6.3584588E-18
   57.85650        6.3581837E-18
   58.01800        6.3557696E-18
   58.17950        6.3521230E-18
   58.34100        6.3491203E-18
   58.50250        6.3485405E-18
   58.66400        6.3509666E-18
   58.82550        6.3553701E-18
   58.98700        6.3596752E-18
   59.14850        6.3619751E-18
   59.31000        6.3616554E-18
   59.47150        6.3597066E-18
   59.63300        6.3580473E-18
   59.79450        6.3583045E-18
   59.95600        6.3608386E-18
   60.11750        6.3645985E-18
   60.27900        6.3678299E-18
   60.44050        6.3691290E-18
   60.60200        6.3681753E-18
   60.76350        6.3657537E-18
   60.92500        6.3631770E-18
   61.08650        6.3615545E-18
   61.24800        6.3613643E-18
   61.40950        6.3624801E-18
   61.57100        6.3644769E-18
   61.73250        6.3668915E-18
   61.89400        6.3692543E-18
   62.05550        6.3709918E-18
   62.21700        6.3714385E-18
   62.37850        6.3701233E-18
   62.54000        6.3671938E-18
   62.70150        6.3636233E-18
   62.86300        6.3608965E-18
   63.02450        6.3602323E-18
   63.18600        6.3617882E-18
   63.34750        6.3644294E-18
   63.50900        6.3663009E-18
   63.67050        6.3659510E-18
   63.83200        6.3632953E-18
   63.99350        6.3597823E-18
   64.15500        6.3575931E-18
   64.31650        6.3583285E-18
   64.47800        6.3619946E-18
   64.63950        6.3669357E-18
   64.80100        6.3707838E-18
   64.96250        6.3718455E-18
   65.12400        6.3700778E-18
   65.28550        6.3670627E-18
   65.44700        6.3650208E-18
   65.60850        6.3655184E-18
   65.77000        6.3686550E-18
   65.93150        6.3731685E-18
   66.09300        6.3772879E-18
   66.25450        6.3797231E-18
   66.41600        6.3801950E-18
   66.57750        6.3792930E-18
   66.73900        6.3779083E-18
   66.90050        6.3767068E-18
   67.06200        6.3759334E-18
   67.22350        6.3755529E-18
   67.38500        6.3754644E-18
   67.54650        6.3755657E-18
   67.70800        6.3756269E-18
   67.86950        6.3751893E-18
   68.03100        6.3737066E-18
   68.19250        6.3709368E-18
   68.35400        6.3673328E-18
   68.51550        6.3640526E-18
   68.67700        6.3624450E-18
   68.83850        6.3632540E-18
   69.00000        6.3660618E-18
   69.16150        6.3694255E-18
   69.32300        6.3717119E-18
   69.48450        6.3721234E-18
   69.64600        6.3712383E-18
   69.80750        6.3706477E-18
   69.96900        6.3718835E-18
   70.13050        6.3753229E-18
   70.29200        6.3797976E-18
   70.45350        6.3832027E-18
   70.61500        6.3837569E-18
   70.77650        6.3811264E-18
   70.93800        6.3766874E-18
   71.09950        6.3727624E-18
   71.26100        6.3712904E-18
   71.42250        6.3727719E-18
   71.58400        6.3761212E-18
   71.74550        6.3794609E-18
   71.90700        6.3813018E-18
   72.06850        6.3813403E-18
   72.23000        6.3804419E-18
   72.39150        6.3799101E-18
   72.55300        6.3806086E-18
   72.71450        6.3824871E-18
   72.87600        6.3847400E-18
   73.03750        6.3863790E-18
   73.19900        6.3867930E-18
   73.36050        6.3859630E-18
   73.52200        6.3843074E-18
   73.68350        6.3823718E-18
   73.84500        6.3806243E-18
   74.00650        6.3794320E-18
   74.16800        6.3791110E-18
   74.32950        6.3798497E-18
   74.49100        6.3814941E-18
   74.65250        6.3833759E-18
   74.81400        6.3844451E-18
   74.97550        6.3837875E-18
   75.13700        6.3812658E-18
   75.29850        6.3778334E-18
   75.46000        6.3751794E-18
   75.62150        6.3748072E-18
   75.78300        6.3770757E-18
   75.94450        6.3808307E-18
   76.10600        6.3839583E-18
   76.26750        6.3845824E-18
   76.42900        6.3822096E-18
   76.59050        6.3780832E-18
   76.75200        6.3745048E-18
   76.91350        6.3734882E-18
   77.07500        6.3755641E-18
   77.23650        6.3794630E-18
   77.39800        6.3828763E-18
   77.55950        6.3838156E-18
   77.72100        6.3817323E-18
   77.88250        6.3777395E-18
   78.04400        6.3738559E-18
   78.20550        6.3717979E-18
   78.36700        6.3720862E-18
   78.52850        6.3739382E-18
   78.69000        6.3759119E-18
   78.85150        6.3768102E-18
   79.01300        6.3762920E-18
   79.17450        6.3748994E-18
   79.33600        6.3736169E-18
   79.49750        6.3733116E-18
   79.65900        6.3743895E-18
   79.82050        6.3767635E-18
   79.98200        6.3800172E-18
   80.14350        6.3835679E-18
   80.30500        6.3867360E-18
   80.46650        6.3888205E-18
   80.62800        6.3892692E-18
   80.78950        6.3879751E-18
   80.95100        6.3854807E-18
   81.11250        6.3828759E-18
   81.27400        6.3813088E-18
   81.43550        6.3813473E-18
   81.59700        6.3826145E-18
   81.75850        6.3839901E-18
   81.92000        6.3843313E-18
   82.08150        6.3832800E-18
   82.24300        6.3816041E-18
   82.40450        6.3808109E-18
   82.56600        6.3822047E-18
   82.72750        6.3859807E-18
   82.88900        6.3909434E-18
   83.05050        6.3950814E-18
   83.21200        6.3966927E-18
   83.37350        6.3953697E-18
   83.53500        6.3922379E-18
   83.69650        6.3892853E-18
   83.85800        6.3881872E-18
   84.01950        6.3893742E-18
   84.18100        6.3918794E-18
   84.34250        6.3940259E-18
   84.50400        6.3944651E-18
   84.66550        6.3929166E-18
   84.82700        6.3902068E-18
   84.98850        6.3876632E-18
   85.15000        6.3863075E-18
   85.31150        6.3863410E-18
   85.47300        6.3871752E-18
   85.63450        6.3878795E-18
   85.79600        6.3877178E-18
   85.95750        6.3864555E-18
   86.11900        6.3843338E-18
   86.28050        6.3818440E-18
   86.44200        6.3795114E-18
   86.60350        6.3777937E-18
   86.76500        6.3770455E-18
   86.92650        6.3774293E-18
   87.08800        6.3787566E-18
   87.24950        6.3803993E-18
   87.41100        6.3814490E-18
   87.57250        6.3811616E-18
   87.73400        6.3794564E-18
   87.89550        6.3771258E-18
   88.05700        6.3755210E-18
   88.21850        6.3758085E-18
   88.38000        6.3782168E-18
   88.54150        6.3817675E-18
   88.70300        6.3847156E-18
   88.86450        6.3855055E-18
   89.02600        6.3836870E-18
   89.18750        6.3802273E-18
   89.34900        6.3770038E-18
   89.51050        6.3757485E-18
   89.67200        6.3770881E-18
   89.83350        6.3802562E-18
   89.99500        6.3836324E-18
   90.15650        6.3857516E-18
   90.31800        6.3861259E-18
   90.47950        6.3854129E-18
   90.64100        6.3848711E-18
   90.80250        6.3855183E-18
   90.96400        6.3875375E-18
   91.12550        6.3902527E-18
   91.28700        6.3926205E-18
   91.44850        6.3938745E-18
   91.61000        6.3939175E-18
   91.77150        6.3932843E-18
   91.93300        6.3927644E-18
   92.09450        6.3929886E-18
   92.25600        6.3942062E-18
   92.41750        6.3963193E-18
   92.57900        6.3990465E-18
   92.74050        6.4020367E-18
   92.90200        6.4048810E-18
   93.06350        6.4071011E-18
   93.22500        6.4082464E-18
   93.38650        6.4080967E-18
   93.54800        6.4068364E-18
   93.70950        6.4050179E-18
   93.87100        6.4032585E-18
   94.03250        6.4018527E-18
   94.19400        6.4005627E-18
   94.35550        6.3987718E-18
   94.51700        6.3959388E-18
   94.67850        6.3920634E-18
   94.84000        6.3878349E-18
   95.00150        6.3843193E-18
   95.16300        6.3823457E-18
   95.32450        6.3819813E-18
   95.48600        6.3824503E-18
   95.64750        6.3825918E-18
   95.80900        6.3815901E-18
   95.97050        6.3795072E-18
   96.13200        6.3772656E-18
   96.29350        6.3760786E-18
   96.45500        6.3766890E-18
   96.61650        6.3789038E-18
   96.77800        6.3817059E-18
   96.93950        6.3838557E-18
   97.10100        6.3845940E-18
   97.26250        6.3840220E-18
   97.42400        6.3829681E-18
   97.58550        6.3824681E-18
   97.74700        6.3831894E-18
   97.90850        6.3851205E-18
   98.07000        6.3876682E-18
   98.23150        6.3900405E-18
   98.39300        6.3916548E-18
   98.55450        6.3923475E-18
   98.71600        6.3923269E-18
   98.87750        6.3919811E-18
   99.03900        6.3916825E-18
   99.20050        6.3916912E-18
   99.36200        6.3921155E-18
   99.52350        6.3928910E-18
   99.68500        6.3937633E-18
   99.84650        6.3943460E-18
   100.0080        6.3942885E-18
   100.1695        6.3935039E-18
   100.3310        6.3923194E-18
   100.4925        6.3914033E-18
   100.6540        6.3914542E-18
   100.8155        6.3927963E-18
   100.9770        6.3951190E-18
   101.1385        6.3975551E-18
   101.3000        6.3990862E-18
   101.4615        6.3990874E-18
   101.6230        6.3976820E-18
   101.7845        6.3956774E-18
   101.9460        6.3941028E-18
   102.1075        6.3936140E-18
   102.2690        6.3941318E-18
   102.4305        6.3949445E-18
   102.5920        6.3951922E-18
   102.7535        6.3944167E-18
   102.9150        6.3928356E-18
   103.0765        6.3911899E-18
   103.2380        6.3902788E-18
   103.3995        6.3904889E-18
   103.5610        6.3915870E-18
   103.7225        6.3928769E-18
   103.8840        6.3935904E-18
   104.0455        6.3932827E-18
   104.2070        6.3920063E-18
   104.3685        6.3901952E-18
   104.5300        6.3883833E-18
   104.6915        6.3869299E-18
   104.8530        6.3859154E-18
   105.0145        6.3852077E-18
   105.1760        6.3846192E-18
   105.3375        6.3840315E-18
   105.4990        6.3834413E-18
   105.6605        6.3829615E-18
   105.8220        6.3827986E-18
   105.9835        6.3832113E-18
   106.1450        6.3844256E-18
   106.3065        6.3865056E-18
   106.4680        6.3892502E-18
   106.6295        6.3921904E-18
   106.7910        6.3947406E-18
   106.9525        6.3964417E-18
   107.1140        6.3971832E-18
   107.2755        6.3972622E-18
   107.4370        6.3972209E-18
   107.5985        6.3975336E-18
   107.7600        6.3983111E-18
   107.9215        6.3992098E-18
   108.0830        6.3996234E-18
   108.2445        6.3990626E-18
   108.4060        6.3974868E-18
   108.5675        6.3953829E-18
   108.7290        6.3935263E-18
   108.8905        6.3925812E-18
   109.0520        6.3927731E-18
   109.2135        6.3938150E-18
   109.3750        6.3950963E-18
   109.5365        6.3960049E-18
   109.6980        6.3961910E-18
   109.8595        6.3956674E-18
   110.0210        6.3947187E-18
   110.1825        6.3937136E-18
   110.3440        6.3929357E-18
   110.5055        6.3925039E-18
   110.6670        6.3923939E-18
   110.8285        6.3925014E-18
   110.9900        6.3926974E-18
   111.1515        6.3928571E-18
   111.3130        6.3928873E-18
   111.4745        6.3927822E-18
   111.6360        6.3926573E-18
   111.7975        6.3927198E-18
   111.9590        6.3931512E-18
   112.1205        6.3939506E-18
   112.2820        6.3948618E-18
   112.4435        6.3954507E-18
   112.6050        6.3953180E-18
   112.7665        6.3943146E-18
   112.9280        6.3926532E-18
   113.0895        6.3908247E-18
   113.2510        6.3893771E-18
   113.4125        6.3886707E-18
   113.5740        6.3887410E-18
   113.7355        6.3893254E-18
   113.8970        6.3900327E-18
   114.0585        6.3905451E-18
   114.2200        6.3907317E-18
   114.3815        6.3906353E-18
   114.5430        6.3903731E-18
   114.7045        6.3900463E-18
   114.8660        6.3897225E-18
   115.0275        6.3894603E-18
   115.1890        6.3893159E-18
   115.3505        6.3893097E-18
   115.5120        6.3893742E-18
   115.6735        6.3893680E-18
   115.8350        6.3891675E-18
   115.9965        6.3887956E-18
   116.1580        6.3884755E-18
   116.3195        6.3885624E-18
   116.4810        6.3893581E-18
   116.6425        6.3909211E-18
   116.8040        6.3929865E-18
   116.9655        6.3950661E-18
   117.1270        6.3966890E-18
   117.2885        6.3976485E-18
   117.4500        6.3980915E-18
   117.6115        6.3983789E-18
   117.7730        6.3988016E-18
   117.9345        6.3993364E-18
   118.0960        6.3996292E-18
   118.2575        6.3992111E-18
   118.4190        6.3978119E-18
   118.5805        6.3955645E-18
   118.7420        6.3929708E-18