  -27.90000        8.8664671E-18
  -27.73850        8.8946020E-18
  -27.57700        8.9398901E-18
  -27.41550        8.9859823E-18
  -27.25400        9.0185227E-18
  -27.09250        9.0314772E-18
  -26.93100        9.0295069E-18
  -26.76950        9.0252949E-18
  -26.60800        9.0331539E-18
  -26.44650        9.0619108E-18
  -26.28500        9.1104606E-18
  -26.12350        9.1680596E-18
  -25.96200        9.2192249E-18
  -25.80050        9.2509150E-18
  -25.63900        9.2586152E-18
  -25.47750        9.2484682E-18
  -25.31600        9.2344409E-18
  -25.15450        9.2318700E-18
  -24.99300        9.2503980E-18
  -24.83150        9.2896105E-18
  -24.67000        9.3393803E-18
  -24.50850        9.3847313E-18
  -24.34700        9.4129043E-18
  -24.18550        9.4193033E-18
  -24.02400        9.4095484E-18
  -23.86250        9.3967105E-18
  -23.70100        9.3950777E-18
  -23.53950        9.4134080E-18
  -23.37800        9.4508537E-18
  -23.21650        9.4974512E-18
  -23.05500        9.5388921E-18
  -22.89350        9.5633080E-18
  -22.73200        9.5668384E-18
  -22.57050        9.5553688E-18
  -22.40900        9.5416615E-18
  -22.24750        9.5392635E-18
  -22.08600        9.5560909E-18
  -21.92450        9.5907324E-18
  -21.76300        9.6331783E-18
  -21.60150        9.6696098E-18
  -21.44000        9.6889444E-18
  -21.27850        9.6880361E-18
  -21.11700        9.6730890E-18
  -20.95550        9.6566587E-18
  -20.79400        9.6516890E-18
  -20.63250        9.6654516E-18
  -20.47100        9.6962351E-18
  -20.30950        9.7343409E-18
  -20.14800        9.7668474E-18
  -19.98650        9.7838344E-18
  -19.82500        9.7830891E-18
  -19.66350        9.7710470E-18
  -19.50200        9.7595674E-18
  -19.34050        9.7601166E-18
  -19.17900        9.7781649E-18
  -19.01750        9.8105052E-18
  -18.85600        9.8467547E-18
  -18.69450        9.8743131E-18
  -18.53300        9.8843823E-18
  -18.37150        9.8761618E-18
  -18.21000        9.8572268E-18
  -18.04850        9.8399172E-18
  -17.88700        9.8355001E-18
  -17.72550        9.8488988E-18
  -17.56400        9.8765183E-18
  -17.40250        9.9081555E-18
  -17.24100        9.9320536E-18
  -17.07950        9.9406438E-18
  -16.91800        9.9341753E-18
  -16.75650        9.9205078E-18
  -16.59500        9.9111739E-18
  -16.43350        9.9156241E-18
  -16.27200        9.9364633E-18
  -16.11050        9.9679979E-18
  -15.94900        9.9988286E-18
  -15.78750        1.0017253E-17
  -15.62600        1.0016907E-17
  -15.46450        9.9999105E-18
  -15.30300        9.9760058E-18
  -15.14150        9.9580643E-18
  -14.98000        9.9561154E-18
  -14.81850        9.9727418E-18
  -14.65700        1.0002069E-17
  -14.49550        1.0032808E-17
  -14.33400        1.0053907E-17
  -14.17250        1.0060029E-17
  -14.01100        1.0054236E-17
  -13.84950        1.0046504E-17
  -13.68800        1.0048795E-17
  -13.52650        1.0069032E-17
  -13.36500        1.0106908E-17
  -13.20350        1.0153610E-17
  -13.04200        1.0195635E-17
  -12.88050        1.0220947E-17
  -12.71900        1.0224520E-17
  -12.55750        1.0210635E-17
  -12.39600        1.0190793E-17
  -12.23450        1.0178218E-17
  -12.07300        1.0181540E-17
  -11.91150        1.0200717E-17
  -11.75000        1.0227113E-17
  -11.58850        1.0247762E-17
  -11.42700        1.0251765E-17
  -11.26550        1.0235783E-17
  -11.10400        1.0205942E-17
  -10.94250        1.0175231E-17
  -10.78100        1.0157540E-17
  -10.61950        1.0161183E-17
  -10.45800        1.0184982E-17
  -10.29650        1.0218814E-17
  -10.13500        1.0248408E-17
  -9.973500        1.0262157E-17
  -9.812000        1.0256701E-17
  -9.650500        1.0238622E-17
  -9.489000        1.0221377E-17
  -9.327500        1.0218898E-17
  -9.166000        1.0238858E-17
  -9.004500        1.0278819E-17
  -8.843000        1.0327121E-17
  -8.681500        1.0368142E-17
  -8.520000        1.0389488E-17
  -8.358500        1.0387714E-17
  -8.197000        1.0369861E-17
  -8.035500        1.0350072E-17
  -7.874000        1.0342863E-17
  -7.712500        1.0356233E-17
  -7.551000        1.0387881E-17
  -7.389500        1.0426335E-17
  -7.228000        1.0456498E-17
  -7.066500        1.0466952E-17
  -6.905000        1.0455607E-17
  -6.743500        1.0430945E-17
  -6.582000        1.0408271E-17
  -6.420500        1.0402661E-17
  -6.259000        1.0421949E-17
  -6.097500        1.0463015E-17
  -5.936000        1.0513154E-17
  -5.774500        1.0555882E-17
  -5.613000        1.0578490E-17
  -5.451500        1.0577787E-17
  -5.290000        1.0561363E-17
  -5.128500        1.0543791E-17
  -4.967000        1.0539576E-17
  -4.805500        1.0556182E-17
  -4.644000        1.0590445E-17
  -4.482500        1.0630058E-17
  -4.321000        1.0659436E-17
  -4.159500        1.0667177E-17
  -3.998000        1.0651592E-17
  -3.836500        1.0621676E-17
  -3.675000        1.0593043E-17
  -3.513500        1.0580740E-17
  -3.352000        1.0592298E-17
  -3.190500        1.0624292E-17
  -3.029000        1.0664016E-17
  -2.867500        1.0695448E-17
  -2.706000        1.0706702E-17
  -2.544500        1.0695464E-17
  -2.383000        1.0669876E-17
  -2.221500        1.0644514E-17
  -2.060000        1.0633403E-17
  -1.898500        1.0643378E-17
  -1.737000        1.0670955E-17
  -1.575500        1.0704108E-17
  -1.414000        1.0728118E-17
  -1.252500        1.0732668E-17
  -1.091000        1.0716822E-17
 -0.9295000        1.0689567E-17
 -0.7680000        1.0665647E-17
 -0.6065000        1.0658715E-17
 -0.4450000        1.0674997E-17
 -0.2835000        1.0710472E-17
 -0.1220000        1.0752836E-17
  3.9500002E-02    1.0787316E-17
  0.2010000        1.0803535E-17
  0.3625000        1.0800208E-17
  0.5240000        1.0785492E-17
  0.6855000        1.0772859E-17
  0.8470000        1.0774511E-17
   1.008500        1.0795494E-17
   1.170000        1.0831286E-17
   1.331500        1.0869982E-17
   1.493000        1.0898004E-17
   1.654500        1.0906555E-17
   1.816000        1.0895762E-17
   1.977500        1.0874527E-17
   2.139000        1.0856224E-17
   2.300500        1.0852298E-17
   2.462000        1.0866885E-17
   2.623500        1.0894984E-17
   2.785000        1.0925012E-17
   2.946500        1.0944517E-17
   3.108000        1.0946220E-17
   3.269500        1.0931546E-17
   3.431000        1.0909948E-17
   3.592500        1.0894402E-17
   3.754000        1.0895258E-17
   3.915500        1.0915414E-17
   4.077000        1.0949084E-17
   4.238500        1.0984718E-17
   4.400000        1.1010615E-17
   4.561500        1.1020499E-17
   4.723000        1.1016381E-17
   4.884500        1.1007362E-17
   5.046000        1.1004995E-17
   5.207500        1.1017464E-17
   5.369000        1.1045420E-17
   5.530500        1.1081495E-17
   5.692000        1.1113726E-17
   5.853500        1.1131225E-17
   6.015000        1.1129396E-17
   6.176500        1.1112147E-17
   6.338000        1.1090061E-17
   6.499500        1.1075397E-17
   6.661000        1.1076328E-17
   6.822500        1.1093187E-17
   6.984000        1.1118518E-17
   7.145500        1.1140880E-17
   7.307000        1.1150554E-17
   7.468500        1.1144364E-17
   7.630000        1.1127263E-17
   7.791500        1.1109913E-17
   7.953000        1.1103419E-17
   8.114500        1.1113776E-17
   8.276000        1.1138758E-17
   8.437500        1.1168761E-17
   8.599000        1.1191263E-17
   8.760500        1.1196763E-17
   8.922000        1.1183356E-17
   9.083500        1.1157732E-17
   9.245000        1.1132102E-17
   9.406500        1.1118492E-17
   9.568000        1.1123140E-17
   9.729500        1.1143674E-17
   9.891000        1.1170430E-17
   10.05250        1.1191277E-17
   10.21400        1.1197637E-17
   10.37550        1.1188777E-17
   10.53700        1.1172307E-17
   10.69850        1.1160582E-17
   10.86000        1.1164734E-17
   11.02150        1.1189160E-17
   11.18300        1.1229162E-17
   11.34450        1.1272898E-17
   11.50600        1.1306777E-17
   11.66750        1.1321764E-17
   11.82900        1.1317589E-17
   11.99050        1.1302847E-17
   12.15200        1.1290890E-17
   12.31350        1.1293468E-17
   12.47500        1.1315090E-17
   12.63650        1.1350826E-17
   12.79800        1.1388613E-17
   12.95950        1.1414970E-17
   13.12100        1.1421460E-17
   13.28250        1.1408778E-17
   13.44400        1.1386528E-17
   13.60550        1.1368748E-17
   13.76700        1.1367281E-17
   13.92850        1.1386139E-17
   14.09000        1.1419548E-17
   14.25150        1.1454607E-17
   14.41300        1.1477377E-17
   14.57450        1.1479488E-17
   14.73600        1.1462178E-17
   14.89750        1.1435793E-17
   15.05900        1.1414985E-17
   15.22050        1.1411820E-17
   15.38200        1.1430069E-17
   15.54350        1.1463356E-17
   15.70500        1.1498080E-17
   15.86650        1.1519747E-17
   16.02800        1.1519751E-17
   16.18950        1.1499405E-17
   16.35100        1.1469341E-17
   16.51250        1.1444538E-17
   16.67400        1.1437329E-17
   16.83550        1.1451684E-17
   16.99700        1.1481461E-17
   17.15850        1.1513451E-17
   17.32000        1.1533783E-17
   17.48150        1.1534656E-17
   17.64300        1.1518201E-17
   17.80450        1.1495639E-17
   17.96600        1.1482097E-17
   18.12750        1.1489515E-17
   18.28900        1.1520961E-17
   18.45050        1.1569051E-17
   18.61200        1.1619198E-17
   18.77350        1.1656187E-17
   18.93500        1.1670996E-17
   19.09650        1.1664682E-17
   19.25800        1.1647511E-17
   19.41950        1.1633809E-17
   19.58100        1.1634972E-17
   19.74250        1.1653970E-17
   19.90400        1.1683938E-17
   20.06550        1.1711502E-17
   20.22700        1.1723268E-17
   20.38850        1.1712354E-17
   20.55000        1.1681890E-17
   20.71150        1.1643802E-17
   20.87300        1.1613455E-17
   21.03450        1.1602695E-17
   21.19600        1.1614549E-17
   21.35750        1.1642064E-17
   21.51900        1.1671797E-17
   21.68050        1.1690274E-17
   21.84200        1.1690329E-17
   22.00350        1.1674371E-17
   22.16500        1.1653048E-17
   22.32650        1.1640018E-17
   22.48800        1.1645328E-17
   22.64950        1.1670584E-17
   22.81100        1.1708166E-17
   22.97250        1.1744859E-17
   23.13400        1.1768114E-17
   23.29550        1.1771974E-17
   23.45700        1.1759814E-17
   23.61850        1.1742644E-17
   23.78000        1.1733777E-17
   23.94150        1.1742443E-17
   24.10300        1.1769373E-17
   24.26450        1.1806476E-17
   24.42600        1.1840699E-17
   24.58750        1.1860246E-17
   24.74900        1.1860131E-17
   24.91050        1.1844445E-17
   25.07200        1.1824258E-17
   25.23350        1.1812221E-17
   25.39500        1.1816464E-17
   25.55650        1.1836778E-17
   25.71800        1.1864860E-17
   25.87950        1.1888503E-17
   26.04100        1.1897636E-17
   26.20250        1.1889279E-17
   26.36400        1.1869010E-17
   26.52550        1.1848244E-17
   26.68700        1.1838674E-17
   26.84850        1.1846609E-17
   27.01000        1.1869943E-17
   27.17150        1.1899241E-17
   27.33300        1.1922366E-17
   27.49450        1.1930390E-17
   27.65600        1.1921923E-17
   27.81750        1.1903741E-17
   27.97900        1.1887462E-17
   28.14050        1.1883885E-17
   28.30200        1.1897762E-17
   28.46350        1.1925540E-17
   28.62500        1.1957145E-17
   28.78650        1.1980933E-17
   28.94800        1.1989361E-17
   29.10950        1.1982624E-17
   29.27100        1.1968472E-17
   29.43250        1.1958287E-17
   29.59400        1.1961350E-17
   29.75550        1.1980110E-17
   29.91700        1.2008790E-17
   30.07850        1.2036057E-17
   30.24000        1.2050498E-17
   30.40150        1.2046229E-17
   30.56300        1.2025917E-17
   30.72450        1.1999694E-17
   30.88600        1.1980456E-17
   31.04750        1.1977809E-17
   31.20900        1.1993597E-17
   31.37050        1.2021205E-17
   31.53200        1.2048964E-17
   31.69350        1.2066010E-17
   31.85500        1.2067703E-17
   32.01650        1.2057957E-17
   32.17800        1.2047282E-17
   32.33950        1.2047494E-17
   32.50100        1.2065662E-17
   32.66250        1.2100261E-17
   32.82400        1.2141465E-17
   32.98550        1.2175483E-17
   33.14700        1.2190905E-17
   33.30850        1.2184011E-17
   33.47000        1.2160486E-17
   33.63150        1.2132706E-17
   33.79300        1.2113868E-17
   33.95450        1.2111789E-17
   34.11600        1.2125320E-17
   34.27750        1.2145133E-17
   34.43900        1.2158480E-17
   34.60050        1.2155650E-17
   34.76200        1.2135010E-17
   34.92350        1.2104155E-17
   35.08500        1.2076581E-17
   35.24650        1.2065416E-17
   35.40800        1.2077203E-17
   35.56950        1.2108710E-17
   35.73100        1.2148349E-17
   35.89250        1.2181556E-17
   36.05400        1.2197591E-17
   36.21550        1.2194534E-17
   36.37700        1.2180064E-17
   36.53850        1.2167642E-17
   36.70000        1.2169921E-17
   36.86150        1.2192540E-17
   37.02300        1.2231253E-17
   37.18450        1.2273814E-17
   37.34600        1.2305690E-17
   37.50750        1.2316872E-17
   37.66900        1.2306567E-17
   37.83050        1.2283495E-17
   37.99200        1.2261716E-17
   38.15350        1.2253955E-17
   38.31500        1.2265622E-17
   38.47650        1.2292356E-17
   38.63800        1.2322230E-17
   38.79950        1.2341548E-17
   38.96100        1.2341469E-17
   39.12250        1.2322324E-17
   39.28400        1.2293585E-17
   39.44550        1.2269523E-17
   39.60700        1.2262599E-17
   39.76850        1.2277693E-17
   39.93000        1.2309878E-17
   40.09150        1.2346743E-17
   40.25300        1.2374172E-17
   40.41450        1.2382832E-17
   40.57600        1.2372339E-17
   40.73750        1.2351187E-17
   40.89900        1.2332486E-17
   41.06050        1.2327599E-17
   41.22200        1.2340684E-17
   41.38350        1.2366731E-17
   41.54500        1.2394028E-17
   41.70650        1.2409806E-17
   41.86800        1.2406420E-17
   42.02950        1.2385074E-17
   42.19100        1.2355371E-17
   42.35250        1.2330893E-17
   42.51400        1.2322946E-17
   42.67550        1.2335409E-17
   42.83700        1.2363087E-17
   42.99850        1.2394289E-17
   43.16000        1.2416354E-17
   43.32150        1.2421483E-17
   43.48300        1.2410160E-17
   43.64450        1.2390616E-17
   43.80600        1.2374670E-17
   43.96750        1.2372016E-17
   44.12900        1.2385635E-17
   44.29050        1.2410503E-17
   44.45200        1.2436132E-17
   44.61350        1.2451690E-17
   44.77500        1.2451251E-17
   44.93650        1.2436702E-17
   45.09800        1.2416944E-17
   45.25950        1.2403808E-17
   45.42100        1.2406588E-17
   45.58250        1.2427773E-17
   45.74400        1.2461955E-17
   45.90550        1.2498370E-17
   46.06700        1.2525854E-17
   46.22850        1.2537863E-17
   46.39000        1.2535208E-17
   46.55150        1.2525280E-17
   46.71300        1.2518184E-17
   46.87450        1.2521698E-17
   47.03600        1.2537452E-17
   47.19750        1.2560164E-17
   47.35900        1.2580238E-17
   47.52050        1.2588468E-17
   47.68200        1.2580549E-17
   47.84350        1.2559272E-17
   48.00500        1.2533342E-17
   48.16650        1.2513449E-17
   48.32800        1.2507424E-17
   48.48950        1.2516810E-17
   48.65100        1.2536398E-17
   48.81250        1.2556920E-17
   48.97400        1.2569566E-17
   49.13550        1.2570179E-17
   49.29700        1.2561155E-17
   49.45850        1.2550175E-17
   49.62000        1.2546441E-17
   49.78150        1.2556178E-17
   49.94300        1.2579596E-17
   50.10450        1.2610698E-17
   50.26600        1.2640040E-17
   50.42750        1.2659100E-17
   50.58900        1.2664186E-17
   50.75050        1.2658031E-17
   50.91200        1.2648300E-17
   51.07350        1.2643752E-17
   51.23500        1.2649878E-17
   51.39650        1.2666134E-17
   51.55800        1.2686106E-17
   51.71950        1.2700537E-17
   51.88100        1.2701809E-17
   52.04250        1.2687691E-17
   52.20400        1.2662590E-17
   52.36550        1.2635673E-17
   52.52700        1.2616738E-17
   52.68850        1.2611823E-17
   52.85000        1.2620620E-17
   53.01150        1.2636912E-17
   53.17300        1.2651820E-17
   53.33450        1.2658249E-17
   53.49600        1.2654384E-17
   53.65750        1.2644545E-17
   53.81900        1.2636997E-17
   53.98050        1.2639747E-17
   54.14200        1.2656398E-17
   54.30350        1.2684056E-17
   54.46500        1.2714344E-17
   54.62650        1.2737091E-17
   54.78800        1.2744968E-17
   54.94950        1.2736898E-17
   55.11100        1.2718583E-17
   55.27250        1.2699899E-17
   55.43400        1.2690357E-17
   55.59550        1.2694769E-17
   55.75700        1.2711174E-17
   55.91850        1.2732000E-17
   56.08000        1.2747913E-17
   56.24150        1.2752491E-17
   56.40300        1.2745483E-17
   56.56450        1.2733040E-17
   56.72600        1.2724781E-17
   56.88750        1.2729059E-17
   57.04900        1.2748716E-17
   57.21050        1.2779387E-17
   57.37200        1.2811239E-17
   57.53350        1.2833377E-17
   57.69500        1.2838861E-17
   57.85650        1.2827948E-17
   58.01800        1.2808008E-17
   58.17950        1.2790116E-17
   58.34100        1.2783905E-17
   58.50250        1.2793107E-17
   58.66400        1.2813901E-17
   58.82550        1.2836855E-17
   58.98700        1.2851550E-17
   59.14850        1.2851687E-17
   59.31000        1.2838224E-17
   59.47150        1.2819031E-17
   59.63300        1.2805179E-17
   59.79450        1.2805621E-17
   59.95600        1.2822790E-17
   60.11750        1.2851230E-17
   60.27900        1.2879975E-17
   60.44050        1.2897599E-17
   60.60200        1.2897574E-17
   60.76350        1.2881388E-17
   60.92500        1.2857922E-17
   61.08650        1.2839321E-17
   61.24800        1.2835301E-17
   61.40950        1.2848558E-17
   61.57100        1.2873497E-17
   61.73250        1.2898877E-17
   61.89400        1.2913165E-17
   62.05550        1.2910038E-17
   62.21700        1.2891442E-17
   62.37850        1.2866708E-17
   62.54000        1.2848151E-17
   62.70150        1.2845225E-17
   62.86300        1.2860032E-17
   63.02450        1.2886322E-17
   63.18600        1.2912489E-17
   63.34750        1.2927139E-17
   63.50900        1.2924585E-17
   63.67050        1.2907627E-17
   63.83200        1.2886303E-17
   63.99350        1.2873167E-17
   64.15500        1.2877314E-17
   64.31650        1.2900002E-17
   64.47800        1.2933923E-17
   64.63950        1.2966492E-17
   64.80100        1.2985630E-17
   64.96250        1.2985286E-17
   65.12400        1.2968136E-17
   65.28550        1.2944156E-17
   65.44700        1.2925805E-17
   65.60850        1.2922085E-17
   65.77000        1.2934336E-17
   65.93150        1.2955761E-17
   66.09300        1.2974895E-17
   66.25450        1.2981362E-17
   66.41600        1.2971130E-17
   66.57750        1.2948733E-17
   66.73900        1.2925339E-17
   66.90050        1.2913567E-17
   67.06200        1.2921515E-17
   67.22350        1.2948842E-17
   67.38500        1.2986798E-17
   67.54650        1.3022205E-17
   67.70800        1.3043478E-17
   67.86950        1.3045841E-17
   68.03100        1.3033265E-17
   68.19250        1.3016233E-17
   68.35400        1.3006453E-17
   68.51550        1.3011085E-17
   68.67700        1.3029290E-17
   68.83850        1.3052743E-17
   69.00000        1.3069862E-17
   69.16150        1.3071671E-17
   69.32300        1.3056425E-17
   69.48450        1.3030742E-17
   69.64600        1.3006662E-17
   69.80750        1.2996012E-17
   69.96900        1.3004810E-17
   70.13050        1.3030370E-17
   70.29200        1.3062558E-17
   70.45350        1.3088562E-17
   70.61500        1.3098925E-17
   70.77650        1.3091916E-17
   70.93800        1.3074138E-17
   71.09950        1.3057108E-17
   71.26100        1.3051466E-17
   71.42250        1.3061677E-17
   71.58400        1.3083807E-17
   71.74550        1.3107472E-17
   71.90700        1.3121018E-17
   72.06850        1.3117394E-17
   72.23000        1.3097812E-17
   72.39150        1.3071392E-17
   72.55300        1.3050898E-17
   72.71450        1.3046638E-17
   72.87600        1.3061481E-17
   73.03750        1.3089442E-17
   73.19900        1.3118550E-17
   73.36050        1.3136613E-17
   73.52200        1.3137101E-17
   73.68350        1.3122279E-17
   73.84500        1.3102076E-17
   74.00650        1.3089198E-17
   74.16800        1.3092882E-17
   74.32950        1.3114310E-17
   74.49100        1.3145922E-17
   74.65250        1.3174998E-17
   74.81400        1.3189793E-17
   74.97550        1.3185235E-17
   75.13700        1.3165422E-17
   75.29850        1.3141653E-17
   75.46000        1.3126915E-17
   75.62150        1.3129495E-17
   75.78300        1.3148818E-17
   75.94450        1.3175585E-17
   76.10600        1.3196219E-17
   76.26750        1.3199498E-17
   76.42900        1.3182188E-17
   76.59050        1.3150912E-17
   76.75200        1.3119263E-17
   76.91350        1.3101522E-17
   77.07500        1.3105960E-17
   77.23650        1.3130966E-17
   77.39800        1.3165891E-17
   77.55950        1.3196222E-17
   77.72100        1.3210588E-17
   77.88250        1.3206192E-17
   78.04400        1.3190028E-17
   78.20550        1.3175272E-17
   78.36700        1.3174573E-17
   78.52850        1.3193537E-17
   78.69000        1.3227594E-17
   78.85150        1.3263819E-17
   79.01300        1.3286893E-17
   79.17450        1.3286364E-17
   79.33600        1.3261712E-17
   79.49750        1.3222781E-17
   79.65900        1.3185332E-17
   79.82050        1.3163828E-17
   79.98200        1.3164871E-17
   80.14350        1.3184415E-17
   80.30500        1.3210058E-17
   80.46650        1.3227290E-17
   80.62800        1.3226692E-17
   80.78950        1.3208585E-17
   80.95100        1.3182927E-17
   81.11250        1.3164469E-17
   81.27400        1.3165522E-17
   81.43550        1.3189807E-17
   81.59700        1.3230385E-17
   81.75850        1.3272699E-17
   81.92000        1.3301291E-17
   82.08150        1.3307035E-17
   82.24300        1.3291414E-17
   82.40450        1.3265797E-17
   82.56600        1.3246044E-17
   82.72750        1.3245006E-17
   82.88900        1.3266490E-17
   83.05050        1.3303556E-17
   83.21200        1.3341944E-17
   83.37350        1.3366951E-17
   83.53500        1.3370452E-17
   83.69650        1.3354719E-17
   83.85800        1.3331198E-17
   84.01950        1.3314888E-17
   84.18100        1.3317017E-17
   84.34250        1.3339565E-17
   84.50400        1.3374240E-17
   84.66550        1.3406397E-17
   84.82700        1.3422027E-17
   84.98850        1.3414443E-17
   85.15000        1.3387498E-17
   85.31150        1.3353802E-17
   85.47300        1.3328814E-17
   85.63450        1.3323634E-17
   85.79600        1.3339905E-17
   85.95750        1.3369223E-17
   86.11900        1.3397279E-17
   86.28050        1.3410733E-17
   86.44200        1.3403526E-17
   86.60350        1.3379649E-17
   86.76500        1.3351090E-17
   86.92650        1.3331993E-17
   87.08800        1.3331848E-17
   87.24950        1.3350963E-17
   87.41100        1.3380359E-17
   87.57250        1.3406096E-17
   87.73400        1.3415931E-17
   87.89550        1.3405137E-17
   88.05700        1.3378693E-17
   88.21850        1.3348855E-17
   88.38000        1.3329279E-17
   88.54150        1.3328531E-17
   88.70300        1.3346049E-17
   88.86450        1.3372477E-17
   89.02600        1.3394152E-17
   89.18750        1.3399578E-17
   89.34900        1.3384817E-17
   89.51050        1.3355251E-17
   89.67200        1.3322960E-17
   89.83350        1.3301006E-17
   89.99500        1.3297401E-17
   90.15650        1.3311595E-17
   90.31800        1.3335117E-17
   90.47950        1.3355966E-17
   90.64100        1.3364604E-17
   90.80250        1.3358641E-17
   90.96400        1.3343992E-17
   91.12550        1.3331988E-17
   91.28700        1.3333843E-17
   91.44850        1.3355151E-17
   91.61000        1.3393019E-17
   91.77150        1.3437168E-17
   91.93300        1.3474489E-17
   92.09450        1.3494867E-17
   92.25600        1.3495535E-17
   92.41750        1.3481982E-17
   92.57900        1.3465009E-17
   92.74050        1.3455419E-17
   92.90200        1.3458902E-17
   93.06350        1.3473539E-17
   93.22500        1.3491074E-17
   93.38650        1.3501293E-17
   93.54800        1.3497341E-17
   93.70950        1.3479385E-17
   93.87100        1.3454864E-17
   94.03250        1.3435147E-17
   94.19400        1.3430256E-17
   94.35550        1.3444147E-17
   94.51700        1.3472847E-17
   94.67850        1.3506299E-17
   94.84000        1.3533055E-17
   95.00150        1.3545546E-17
   95.16300        1.3543389E-17
   95.32450        1.3533238E-17
   95.48600        1.3525248E-17
   95.64750        1.3527935E-17
   95.80900        1.3543924E-17
   95.97050        1.3568623E-17
   96.13200        1.3592436E-17
   96.29350        1.3605439E-17
   96.45500        1.3602227E-17
   96.61650        1.3584602E-17
   96.77800        1.3560782E-17
   96.93950        1.3541531E-17
   97.10100        1.3535040E-17
   97.26250        1.3543034E-17
   97.42400        1.3559964E-17
   97.58550        1.3575690E-17
   97.74700        1.3580381E-17
   97.90850        1.3569331E-17
   98.07000        1.3545352E-17
   98.23150        1.3517599E-17
   98.39300        1.3497350E-17
   98.55450        1.3492717E-17
   98.71600        1.3504842E-17
   98.87750        1.3527390E-17
   99.03900        1.3549627E-17
   99.20050        1.3561614E-17
   99.36200        1.3559036E-17
   99.52350        1.3545316E-17
   99.68500        1.3529954E-17
   99.84650        1.3523856E-17
   100.0080        1.3533867E-17
   100.1695        1.3559186E-17
   100.3310        1.3591412E-17
   100.4925        1.3618314E-17
   100.6540        1.3629542E-17
   100.8155        1.3621585E-17
   100.9770        1.3599557E-17
   101.1385        1.3574910E-17
   101.3000        1.3560122E-17
   101.4615        1.3562834E-17
   101.6230        1.3582239E-17
   101.7845        1.3609466E-17
   101.9460        1.3631800E-17
   102.1075        1.3638779E-17
   102.2690        1.3627275E-17
   102.4305        1.3603087E-17
   102.5920        1.3578256E-17
   102.7535        1.3565333E-17
   102.9150        1.3571304E-17
   103.0765        1.3594105E-17
   103.2380        1.3623441E-17
   103.3995        1.3645606E-17
   103.5610        1.3650074E-17
   103.7225        1.3634699E-17
   103.8840        1.3607050E-17
   104.0455        1.3581101E-17
   104.2070        1.3570791E-17
   104.3685        1.3583452E-17
   104.5300        1.3616256E-17
   104.6915        1.3657405E-17
   104.8530        1.3691567E-17
   105.0145        1.3707010E-17
   105.1760        1.3701028E-17
   105.3375        1.3681066E-17
   105.4990        1.3660971E-17
   105.6605        1.3654127E-17
   105.8220        1.3666774E-17
   105.9835        1.3694742E-17
   106.1450        1.3725244E-17
   106.3065        1.3742908E-17
   106.4680        1.3737237E-17
   106.6295        1.3707887E-17
   106.7910        1.3665202E-17
   106.9525        1.3625688E-17
   107.1140        1.3604509E-17
   107.2755        1.3608553E-17
   107.4370        1.3633360E-17
   107.5985        1.3665382E-17
   107.7600        1.3688521E-17
   107.9215        1.3691856E-17
   108.0830        1.3674845E-17
   108.2445        1.3647523E-17
   108.4060        1.3625565E-17
   108.5675        1.3622573E-17
   108.7290        1.3643327E-17
   108.8905        1.3681229E-17
   109.0520        1.3721262E-17
   109.2135        1.3747044E-17
   109.3750        1.3748643E-17
   109.5365        1.3727377E-17
   109.6980        1.3695270E-17
   109.8595        1.3669353E-17
   110.0210        1.3663565E-17
   110.1825        1.3682077E-17
   110.3440        1.3717313E-17
   110.5055        1.3753629E-17
   110.6670        1.3774877E-17
   110.8285        1.3772225E-17
   110.9900        1.3748428E-17
   111.1515        1.3716517E-17
   111.3130        1.3693509E-17
   111.4745        1.3692183E-17
   111.6360        1.3714937E-17
   111.7975        1.3752676E-17
   111.9590        1.3789285E-17
   112.1205        1.3809521E-17
   112.2820        1.3806472E-17
   112.4435        1.3784933E-17
   112.6050        1.3759070E-17
   112.7665        1.3745491E-17
   112.9280        1.3755091E-17
   113.0895        1.3787652E-17
   113.2510        1.3831811E-17
   113.4125        1.3870402E-17
   113.5740        1.3888602E-17
   113.7355        1.3880936E-17
   113.8970        1.3853753E-17
   114.0585        1.3821999E-17
   114.2200        1.3801852E-17
   114.3815        1.3802862E-17
   114.5430        1.3823386E-17
   114.7045        1.3851550E-17
   114.8660        1.3871234E-17
   115.0275        1.3870113E-17
   115.1890        1.3845843E-17
   115.3505        1.3807334E-17
   115.5120        1.3770507E-17
   115.6735        1.3750608E-17
   115.8350        1.3754789E-17
   115.9965        1.3778639E-17
   116.1580        1.3808324E-17
   116.3195        1.3827315E-17
   116.4810        1.3824403E-17
   116.6425        1.3799116E-17
   116.8040        1.3761891E-17
   116.9655        1.3728959E-17
   117.1270        1.3714483E-17
   117.2885        1.3723756E-17
   117.4500        1.3750794E-17
   117.6115        1.3781448E-17
   117.7730        1.3800473E-17
   117.9345        1.3799095E-17
   118.0960        1.3779331E-17
   118.2575        1.3752960E-17
   118.4190        1.3735664E-17
   118.5805        1.3739227E-17
   118.7420        1.3765610E-17