  -27.90000       -2.8501453E-18
  -27.73850       -2.8553468E-18
  -27.57700       -2.8637191E-18
  -27.41550       -2.8722381E-18
  -27.25400       -2.8782500E-18
  -27.09250       -2.8806424E-18
  -26.93100       -2.8802793E-18
  -26.76950       -2.8795081E-18
  -26.60800       -2.8809729E-18
  -26.44650       -2.8862989E-18
  -26.28500       -2.8952730E-18
  -26.12350       -2.9059051E-18
  -25.96200       -2.9153346E-18
  -25.80050       -2.9211635E-18
  -25.63900       -2.9225726E-18
  -25.47750       -2.9207104E-18
  -25.31600       -2.9181575E-18
  -25.15450       -2.9177365E-18
  -24.99300       -2.9212069E-18
  -24.83150       -2.9284727E-18
  -24.67000       -2.9376573E-18
  -24.50850       -2.9460069E-18
  -24.34700       -2.9511908E-18
  -24.18550       -2.9523861E-18
  -24.02400       -2.9506407E-18
  -23.86250       -2.9483587E-18
  -23.70100       -2.9481499E-18
  -23.53950       -2.9515992E-18
  -23.37800       -2.9585291E-18
  -23.21650       -2.9671029E-18
  -23.05500       -2.9747044E-18
  -22.89350       -2.9791805E-18
  -22.73200       -2.9798474E-18
  -22.57050       -2.9777997E-18
  -22.40900       -2.9753701E-18
  -22.24750       -2.9750196E-18
  -22.08600       -2.9781714E-18
  -21.92450       -2.9845450E-18
  -21.76300       -2.9923062E-18
  -21.60150       -2.9989454E-18
  -21.44000       -3.0024652E-18
  -21.27850       -3.0023197E-18
  -21.11700       -2.9996547E-18
  -20.95550       -2.9967502E-18
  -20.79400       -2.9959400E-18
  -20.63250       -2.9985200E-18
  -20.47100       -3.0041690E-18
  -20.30950       -3.0111395E-18
  -20.14800       -3.0171218E-18
  -19.98650       -3.0203536E-18
  -19.82500       -3.0204455E-18
  -19.66350       -3.0185328E-18
  -19.50200       -3.0166946E-18
  -19.34050       -3.0169179E-18
  -19.17900       -3.0201270E-18
  -19.01750       -3.0257295E-18
  -18.85600       -3.0319029E-18
  -18.69450       -3.0364731E-18
  -18.53300       -3.0379594E-18
  -18.37150       -3.0362868E-18
  -18.21000       -3.0328255E-18
  -18.04850       -3.0297483E-18
  -17.88700       -3.0290095E-18
  -17.72550       -3.0314379E-18
  -17.56400       -3.0363759E-18
  -17.40250       -3.0420295E-18
  -17.24100       -3.0463542E-18
  -17.07950       -3.0480487E-18
  -16.91800       -3.0471768E-18
  -16.75650       -3.0451153E-18
  -16.59500       -3.0438648E-18
  -16.43350       -3.0450530E-18
  -16.27200       -3.0491147E-18
  -16.11050       -3.0550460E-18
  -15.94900       -3.0608617E-18
  -15.78750       -3.0645303E-18
  -15.62600       -3.0649529E-18
  -15.46450       -3.0624993E-18
  -15.30300       -3.0588500E-18
  -15.14150       -3.0562119E-18
  -14.98000       -3.0562779E-18
  -14.81850       -3.0594365E-18
  -14.65700       -3.0646124E-18
  -14.49550       -3.0698097E-18
  -14.33400       -3.0731063E-18
  -14.17250       -3.0736057E-18
  -14.01100       -3.0718913E-18
  -13.84950       -3.0697556E-18
  -13.68800       -3.0693238E-18
  -13.52650       -3.0720003E-18
  -13.36500       -3.0777422E-18
  -13.20350       -3.0850199E-18
  -13.04200       -3.0915003E-18
  -12.88050       -3.0951248E-18
  -12.71900       -3.0950778E-18
  -12.55750       -3.0921763E-18
  -12.39600       -3.0884906E-18
  -12.23450       -3.0863742E-18
  -12.07300       -3.0873559E-18
  -11.91150       -3.0914169E-18
  -11.75000       -3.0970039E-18
  -11.58850       -3.1017718E-18
  -11.42700       -3.1037148E-18
  -11.26550       -3.1021494E-18
  -11.10400       -3.0980759E-18
  -10.94250       -3.0937479E-18
  -10.78100       -3.0916303E-18
  -10.61950       -3.0932481E-18
  -10.45800       -3.0984633E-18
  -10.29650       -3.1055237E-18
  -10.13500       -3.1118793E-18
  -9.973500       -3.1153779E-18
  -9.812000       -3.1152894E-18
  -9.650500       -3.1126587E-18
  -9.489000       -3.1098143E-18
  -9.327500       -3.1092522E-18
  -9.166000       -3.1124226E-18
  -9.004500       -3.1189955E-18
  -8.843000       -3.1269718E-18
  -8.681500       -3.1335866E-18
  -8.520000       -3.1365932E-18
  -8.358500       -3.1353193E-18
  -8.197000       -3.1309843E-18
  -8.035500       -3.1261387E-18
  -7.874000       -3.1234708E-18
  -7.712500       -3.1245565E-18
  -7.551000       -3.1291341E-18
  -7.389500       -3.1352496E-18
  -7.228000       -3.1402113E-18
  -7.066500       -3.1418840E-18
  -6.905000       -3.1397307E-18
  -6.743500       -3.1350917E-18
  -6.582000       -3.1305875E-18
  -6.420500       -3.1289180E-18
  -6.259000       -3.1316262E-18
  -6.097500       -3.1383894E-18
  -5.936000       -3.1471704E-18
  -5.774500       -3.1551541E-18
  -5.613000       -3.1600301E-18
  -5.451500       -3.1610296E-18
  -5.290000       -3.1592412E-18
  -5.128500       -3.1570537E-18
  -4.967000       -3.1570002E-18
  -4.805500       -3.1605413E-18
  -4.644000       -3.1673587E-18
  -4.482500       -3.1754899E-18
  -4.321000       -3.1822443E-18
  -4.159500       -3.1854688E-18
  -3.998000       -3.1845750E-18
  -3.836500       -3.1808360E-18
  -3.675000       -3.1768022E-18
  -3.513500       -3.1751107E-18
  -3.352000       -3.1772458E-18
  -3.190500       -3.1828373E-18
  -3.029000       -3.1898363E-18
  -2.867500       -3.1954872E-18
  -2.706000       -3.1976228E-18
  -2.544500       -3.1956748E-18
  -2.383000       -3.1909228E-18
  -2.221500       -3.1858661E-18
  -2.060000       -3.1830286E-18
  -1.898500       -3.1837696E-18
  -1.737000       -3.1876648E-18
  -1.575500       -3.1927447E-18
  -1.414000       -3.1964699E-18
  -1.252500       -3.1969596E-18
  -1.091000       -3.1938978E-18
 -0.9295000       -3.1886839E-18
 -0.7680000       -3.1837708E-18
 -0.6065000       -3.1815273E-18
 -0.4450000       -3.1831484E-18
 -0.2835000       -3.1881346E-18
 -0.1220000       -3.1945633E-18
  3.9500002E-02   -3.2000154E-18
  0.2010000       -3.2027135E-18
  0.3625000       -3.2023447E-18
  0.5240000       -3.2001707E-18
  0.6855000       -3.1983914E-18
  0.8470000       -3.1990658E-18
   1.008500       -3.2030985E-18
   1.170000       -3.2097879E-18
   1.331500       -3.2171414E-18
   1.493000       -3.2228121E-18
   1.654500       -3.2252101E-18
   1.816000       -3.2242638E-18
   1.977500       -3.2214497E-18
   2.139000       -3.2190877E-18
   2.300500       -3.2192205E-18
   2.462000       -3.2226268E-18
   2.623500       -3.2284489E-18
   2.785000       -3.2346120E-18
   2.946500       -3.2388389E-18
   3.108000       -3.2397554E-18
   3.269500       -3.2375516E-18
   3.431000       -3.2338798E-18
   3.592500       -3.2310492E-18
   3.754000       -3.2309172E-18
   3.915500       -3.2340175E-18
   4.077000       -3.2393410E-18
   4.238500       -3.2448645E-18
   4.400000       -3.2485614E-18
   4.561500       -3.2493892E-18
   4.723000       -3.2477803E-18
   4.884500       -3.2454024E-18
   5.046000       -3.2443229E-18
   5.207500       -3.2459816E-18
   5.369000       -3.2504784E-18
   5.530500       -3.2565050E-18
   5.692000       -3.2619512E-18
   5.853500       -3.2648957E-18
   6.015000       -3.2645159E-18
   6.176500       -3.2614820E-18
   6.338000       -3.2576552E-18
   6.499500       -3.2552177E-18
   6.661000       -3.2556497E-18
   6.822500       -3.2590405E-18
   6.984000       -3.2640669E-18
   7.145500       -3.2686518E-18
   7.307000       -3.2709964E-18
   7.468500       -3.2704840E-18
   7.630000       -3.2680138E-18
   7.791500       -3.2655858E-18
   7.953000       -3.2653300E-18
   8.114500       -3.2684375E-18
   8.276000       -3.2745233E-18
   8.437500       -3.2817456E-18
   8.599000       -3.2876469E-18
   8.760500       -3.2903057E-18
   8.922000       -3.2892496E-18
   9.083500       -3.2856687E-18
   9.245000       -3.2818296E-18
   9.406500       -3.2799767E-18
   9.568000       -3.2812590E-18
   9.729500       -3.2852041E-18
   9.891000       -3.2899926E-18
   10.05250       -3.2933913E-18
   10.21400       -3.2938845E-18
   10.37550       -3.2914484E-18
   10.53700       -3.2875946E-18
   10.69850       -3.2846523E-18
   10.86000       -3.2846443E-18
   11.02150       -3.2882934E-18
   11.18300       -3.2946370E-18
   11.34450       -3.3014366E-18
   11.50600       -3.3061919E-18
   11.66750       -3.3072952E-18
   11.82900       -3.3047772E-18
   11.99050       -3.3003077E-18
   12.15200       -3.2964310E-18
   12.31350       -3.2953869E-18
   12.47500       -3.2980574E-18
   12.63650       -3.3035501E-18
   12.79800       -3.3096193E-18
   12.95950       -3.3137428E-18
   13.12100       -3.3143487E-18
   13.28250       -3.3116031E-18
   13.44400       -3.3073659E-18
   13.60550       -3.3043163E-18
   13.76700       -3.3046672E-18
   13.92850       -3.3090726E-18
   14.09000       -3.3162752E-18
   14.25150       -3.3236797E-18
   14.41300       -3.3285930E-18
   14.57450       -3.3295250E-18
   14.73600       -3.3269184E-18
   14.89750       -3.3229355E-18
   15.05900       -3.3204062E-18
   15.22050       -3.3214507E-18
   15.38200       -3.3264452E-18
   15.54350       -3.3338354E-18
   15.70500       -3.3408772E-18
   15.86650       -3.3449350E-18
   16.02800       -3.3447168E-18
   16.18950       -3.3408570E-18
   16.35100       -3.3355816E-18
   16.51250       -3.3316279E-18
   16.67400       -3.3309492E-18
   16.83550       -3.3338154E-18
   16.99700       -3.3387355E-18
   17.15850       -3.3432188E-18
   17.32000       -3.3450036E-18
   17.48150       -3.3431706E-18
   17.64300       -3.3386236E-18
   17.80450       -3.3337134E-18
   17.96600       -3.3311833E-18
   18.12750       -3.3329202E-18
   18.28900       -3.3390868E-18
   18.45050       -3.3480435E-18
   18.61200       -3.3570978E-18
   18.77350       -3.3637306E-18
   18.93500       -3.3667213E-18
   19.09650       -3.3666387E-18
   19.25800       -3.3654685E-18
   19.41950       -3.3655640E-18
   19.58100       -3.3684391E-18
   19.74250       -3.3739876E-18
   19.90400       -3.3805170E-18
   20.06550       -3.3855770E-18
   20.22700       -3.3871803E-18
   20.38850       -3.3848067E-18
   20.55000       -3.3796933E-18
   20.71150       -3.3742596E-18
   20.87300       -3.3709620E-18
   21.03450       -3.3711411E-18
   21.19600       -3.3744271E-18
   21.35750       -3.3789900E-18
   21.51900       -3.3824702E-18
   21.68050       -3.3831373E-18
   21.84200       -3.3807014E-18
   22.00350       -3.3763995E-18
   22.16500       -3.3723457E-18
   22.32650       -3.3704783E-18
   22.48800       -3.3716275E-18
   22.64950       -3.3751469E-18
   22.81100       -3.3792721E-18
   22.97250       -3.3820100E-18
   23.13400       -3.3821149E-18
   23.29550       -3.3796815E-18
   23.45700       -3.3760897E-18
   23.61850       -3.3733337E-18
   23.78000       -3.3730715E-18
   23.94150       -3.3758393E-18
   24.10300       -3.3807986E-18
   24.26450       -3.3861420E-18
   24.42600       -3.3899654E-18
   24.58750       -3.3911870E-18
   24.74900       -3.3900709E-18
   24.91050       -3.3880923E-18
   25.07200       -3.3872093E-18
   25.23350       -3.3888787E-18
   25.39500       -3.3933192E-18
   25.55650       -3.3993738E-18
   25.71800       -3.4050565E-18
   25.87950       -3.4085164E-18
   26.04100       -3.4089492E-18
   26.20250       -3.4070014E-18
   26.36400       -3.4044488E-18
   26.52550       -3.4033072E-18
   26.68700       -3.4048173E-18
   26.84850       -3.4088086E-18
   27.01000       -3.4137767E-18
   27.17150       -3.4176183E-18
   27.33300       -3.4186721E-18
   27.49450       -3.4165357E-18
   27.65600       -3.4122726E-18
   27.81750       -3.4079173E-18
   27.97900       -3.4055257E-18
   28.14050       -3.4062330E-18
   28.30200       -3.4097570E-18
   28.46350       -3.4145741E-18
   28.62500       -3.4186665E-18
   28.78650       -3.4204812E-18
   28.94800       -3.4196532E-18
   29.10950       -3.4171586E-18
   29.27100       -3.4148474E-18
   29.43250       -3.4145737E-18
   29.59400       -3.4173166E-18
   29.75550       -3.4226976E-18
   29.91700       -3.4291002E-18
   30.07850       -3.4343652E-18
   30.24000       -3.4367539E-18
   30.40150       -3.4357522E-18
   30.56300       -3.4323454E-18
   30.72450       -3.4286090E-18
   30.88600       -3.4267843E-18
   31.04750       -3.4282550E-18
   31.20900       -3.4329015E-18
   31.37050       -3.4391533E-18
   31.53200       -3.4447244E-18
   31.69350       -3.4477051E-18
   31.85500       -3.4474909E-18
   32.01650       -3.4450941E-18
   32.17800       -3.4426808E-18
   32.33950       -3.4425293E-18
   32.50100       -3.4459116E-18
   32.66250       -3.4524343E-18
   32.82400       -3.4601699E-18
   32.98550       -3.4665096E-18
   33.14700       -3.4693446E-18
   33.30850       -3.4680010E-18
   33.47000       -3.4635190E-18
   33.63150       -3.4581481E-18
   33.79300       -3.4543108E-18
   33.95450       -3.4535128E-18
   34.11600       -3.4556967E-18
   34.27750       -3.4593177E-18
   34.43900       -3.4621039E-18
   34.60050       -3.4621450E-18
   34.76200       -3.4588181E-18
   34.92350       -3.4531261E-18
   35.08500       -3.4472953E-18
   35.24650       -3.4438083E-18
   35.40800       -3.4442922E-18
   35.56950       -3.4487654E-18
   35.73100       -3.4555919E-18
   35.89250       -3.4621860E-18
   36.05400       -3.4661750E-18
   36.21550       -3.4664950E-18
   36.37700       -3.4638922E-18
   36.53850       -3.4605765E-18
   36.70000       -3.4591581E-18
   36.86150       -3.4613671E-18
   37.02300       -3.4671788E-18
   37.18450       -3.4747765E-18
   37.34600       -3.4813931E-18
   37.50750       -3.4846352E-18
   37.66900       -3.4836405E-18
   37.83050       -3.4795034E-18
   37.99200       -3.4747430E-18
   38.15350       -3.4720778E-18
   38.31500       -3.4731014E-18
   38.47650       -3.4775153E-18
   38.63800       -3.4833039E-18
   38.79950       -3.4877467E-18
   38.96100       -3.4887645E-18
   39.12250       -3.4859385E-18
   39.28400       -3.4807152E-18
   39.44550       -3.4757211E-18
   39.60700       -3.4735237E-18
   39.76850       -3.4754399E-18
   39.93000       -3.4809398E-18
   40.09150       -3.4879179E-18
   40.25300       -3.4936895E-18
   40.41450       -3.4962426E-18
   40.57600       -3.4951512E-18
   40.73750       -3.4917287E-18
   40.89900       -3.4883567E-18
   41.06050       -3.4873083E-18
   41.22200       -3.4896302E-18
   41.38350       -3.4946073E-18
   41.54500       -3.5000845E-18
   41.70650       -3.5035040E-18
   41.86800       -3.5031814E-18
   42.02950       -3.4991948E-18
   42.19100       -3.4934352E-18
   42.35250       -3.4887521E-18
   42.51400       -3.4875862E-18
   42.67550       -3.4907617E-18
   42.83700       -3.4970587E-18
   42.99850       -3.5037940E-18
   43.16000       -3.5081458E-18
   43.32150       -3.5085511E-18
   43.48300       -3.5054769E-18
   43.64450       -3.5011561E-18
   43.80600       -3.4984165E-18
   43.96750       -3.4991986E-18
   44.12900       -3.5035222E-18
   44.29050       -3.5094395E-18
   44.45200       -3.5140212E-18
   44.61350       -3.5148608E-18
   44.77500       -3.5113350E-18
   44.93650       -3.5049706E-18
   45.09800       -3.4987320E-18
   45.25950       -3.4956016E-18
   45.42100       -3.4971530E-18
   45.58250       -3.5028200E-18
   45.74400       -3.5102150E-18
   45.90550       -3.5163162E-18
   46.06700       -3.5189487E-18
   46.22850       -3.5178312E-18
   46.39000       -3.5146863E-18
   46.55150       -3.5123541E-18
   46.71300       -3.5133417E-18
   46.87450       -3.5185223E-18
   47.03600       -3.5266242E-18
   47.19750       -3.5347723E-18
   47.35900       -3.5398528E-18
   47.52050       -3.5400390E-18
   47.68200       -3.5357525E-18
   47.84350       -3.5295482E-18
   48.00500       -3.5249392E-18
   48.16650       -3.5246898E-18
   48.32800       -3.5294163E-18
   48.48950       -3.5372067E-18
   48.65100       -3.5445132E-18
   48.81250       -3.5479054E-18
   48.97400       -3.5458379E-18
   49.13550       -3.5395046E-18
   49.29700       -3.5323276E-18
   49.45850       -3.5282926E-18
   49.62000       -3.5299395E-18
   49.78150       -3.5370417E-18
   49.94300       -3.5466510E-18
   50.10450       -3.5545266E-18
   50.26600       -3.5572526E-18
   50.42750       -3.5539712E-18
   50.58900       -3.5468413E-18
   50.75050       -3.5399790E-18
   50.91200       -3.5373862E-18
   51.07350       -3.5409257E-18
   51.23500       -3.5493476E-18
   51.39650       -3.5588544E-18
   51.55800       -3.5649321E-18
   51.71950       -3.5645491E-18
   51.88100       -3.5576521E-18
   52.04250       -3.5472392E-18
   52.20400       -3.5379689E-18
   52.36550       -3.5339617E-18
   52.52700       -3.5368427E-18
   52.68850       -3.5449719E-18
   52.85000       -3.5542330E-18
   53.01150       -3.5600294E-18
   53.17300       -3.5595315E-18
   53.33450       -3.5531063E-18
   53.49600       -3.5442290E-18
   53.65750       -3.5378751E-18
   53.81900       -3.5381253E-18
   53.98050       -3.5461072E-18
   54.14200       -3.5592870E-18
   54.30350       -3.5725103E-18
   54.46500       -3.5803570E-18
   54.62650       -3.5797122E-18
   54.78800       -3.5712977E-18
   54.94950       -3.5593784E-18
   55.11100       -3.5497368E-18
   55.27250       -3.5468777E-18
   55.43400       -3.5518292E-18
   55.59550       -3.5616333E-18
   55.75700       -3.5708051E-18
   55.91850       -3.5740807E-18
   56.08000       -3.5690821E-18
   56.24150       -3.5575967E-18
   56.40300       -3.5447924E-18
   56.56450       -3.5367443E-18
   56.72600       -3.5374735E-18
   56.88750       -3.5469662E-18
   57.04900       -3.5611383E-18
   57.21050       -3.5737701E-18
   57.37200       -3.5794632E-18
   57.53350       -3.5761880E-18
   57.69500       -3.5662122E-18
   57.85650       -3.5549886E-18
   58.01800       -3.5485291E-18
   58.17950       -3.5505408E-18
   58.34100       -3.5606568E-18
   58.50250       -3.5746180E-18
   58.66400       -3.5863090E-18
   58.82550       -3.5906959E-18
   58.98700       -3.5862597E-18
   59.14850       -3.5757769E-18
   59.31000       -3.5650558E-18
   59.47150       -3.5602011E-18
   59.63300       -3.5646931E-18
   59.79450       -3.5776521E-18
   59.95600       -3.5941647E-18
   60.11750       -3.6075522E-18
   60.27900       -3.6125430E-18
   60.44050       -3.6078235E-18
   60.60200       -3.5967037E-18
   60.76350       -3.5855182E-18
   60.92500       -3.5805204E-18
   61.08650       -3.5847741E-18
   61.24800       -3.5965941E-18
   61.40950       -3.6103386E-18
   61.57100       -3.6191757E-18
   61.73250       -3.6184797E-18
   61.89400       -3.6081651E-18
   62.05550       -3.5927850E-18
   62.21700       -3.5793218E-18
   62.37850       -3.5737681E-18
   62.54000       -3.5781865E-18
   62.70150       -3.5897223E-18
   62.86300       -3.6020473E-18
   63.02450       -3.6085088E-18
   63.18600       -3.6054197E-18
   63.34750       -3.5938797E-18
   63.50900       -3.5792481E-18
   63.67050       -3.5685564E-18
   63.83200       -3.5671109E-18
   63.99350       -3.5759266E-18
   64.15500       -3.5912117E-18
   64.31650       -3.6061675E-18
   64.47800       -3.6142300E-18
   64.63950       -3.6122183E-18
   64.80100       -3.6018637E-18
   64.96250       -3.5889758E-18
   65.12400       -3.5806163E-18
   65.28550       -3.5816176E-18
   65.44700       -3.5921439E-18
   65.60850       -3.6074885E-18
   65.77000       -3.6202900E-18
   65.93150       -3.6241347E-18
   66.09300       -3.6168199E-18
   66.25450       -3.6016304E-18
   66.41600       -3.5859144E-18
   66.57750       -3.5775677E-18
   66.73900       -3.5811395E-18
   66.90050       -3.5955051E-18
   67.06200       -3.6143376E-18
   67.22350       -3.6291896E-18
   67.38500       -3.6336915E-18
   67.54650       -3.6267482E-18
   67.70800       -3.6131063E-18
   67.86950       -3.6009662E-18
   68.03100       -3.5978039E-18
   68.19250       -3.6065087E-18
   68.35400       -3.6237984E-18
   68.51550       -3.6417354E-18
   68.67700       -3.6516231E-18
   68.83850       -3.6483297E-18
   69.00000       -3.6328858E-18
   69.16150       -3.6120587E-18
   69.32300       -3.5951188E-18
   69.48450       -3.5893770E-18
   69.64600       -3.5966872E-18
   69.80750       -3.6125939E-18
   69.96900       -3.6285473E-18
   70.13050       -3.6361069E-18
   70.29200       -3.6311062E-18
   70.45350       -3.6157491E-18
   70.61500       -3.5975979E-18
   70.77650       -3.5859057E-18
   70.93800       -3.5870534E-18
   71.09950       -3.6013144E-18
   71.26100       -3.6225713E-18
   71.42250       -3.6411668E-18
   71.58400       -3.6485870E-18
   71.74550       -3.6416817E-18
   71.90700       -3.6243469E-18
   72.06850       -3.6057419E-18
   72.23000       -3.5958410E-18
   72.39150       -3.6004691E-18
   72.55300       -3.6183047E-18
   72.71450       -3.6414195E-18
   72.87600       -3.6591513E-18
   73.03750       -3.6634212E-18
   73.19900       -3.6528130E-18
   73.36050       -3.6333362E-18
   73.52200       -3.6154385E-18
   73.68350       -3.6087582E-18
   73.84500       -3.6172439E-18
   74.00650       -3.6371223E-18
   74.16800       -3.6587505E-18
   74.32950       -3.6714403E-18
   74.49100       -3.6688293E-18
   74.65250       -3.6520913E-18
   74.81400       -3.6293691E-18
   74.97550       -3.6117290E-18
   75.13700       -3.6076684E-18
   75.29850       -3.6189127E-18
   75.46000       -3.6395790E-18
   75.62150       -3.6591013E-18
   75.78300       -3.6674479E-18
   75.94450       -3.6600711E-18
   76.10600       -3.6401683E-18
   76.26750       -3.6171351E-18
   76.42900       -3.6019729E-18
   76.59050       -3.6018918E-18
   76.75200       -3.6167525E-18
   76.91350       -3.6391261E-18
   77.07500       -3.6579606E-18
   77.23650       -3.6640759E-18
   77.39800       -3.6547784E-18
   77.55950       -3.6352855E-18
   77.72100       -3.6162008E-18
   77.88250       -3.6082425E-18
   78.04400       -3.6168075E-18
   78.20550       -3.6391075E-18
   78.36700       -3.6653676E-18
   78.52850       -3.6835759E-18
   78.69000       -3.6854420E-18
   78.85150       -3.6705681E-18
   79.01300       -3.6466840E-18
   79.17450       -3.6257907E-18
   79.33600       -3.6181289E-18
   79.49750       -3.6270369E-18
   79.65900       -3.6472945E-18
   79.82050       -3.6678169E-18
   79.98200       -3.6773307E-18
   80.14350       -3.6701607E-18
   80.30500       -3.6491995E-18
   80.46650       -3.6245475E-18
   80.62800       -3.6085035E-18
   80.78950       -3.6094328E-18
   80.95100       -3.6275882E-18
   81.11250       -3.6549736E-18
   81.27400       -3.6792907E-18
   81.43550       -3.6899774E-18
   81.59700       -3.6833418E-18
   81.75850       -3.6642728E-18
   81.92000       -3.6437128E-18
   82.08150       -3.6331745E-18
   82.24300       -3.6390045E-18
   82.40450       -3.6592179E-18
   82.56600       -3.6844614E-18
   82.72750       -3.7026412E-18
   82.88900       -3.7049399E-18
   83.05050       -3.6902533E-18
   83.21200       -3.6658267E-18
   83.37350       -3.6437492E-18
   83.53500       -3.6350059E-18
   83.69650       -3.6440271E-18
   83.85800       -3.6664342E-18
   84.01950       -3.6911524E-18
   84.18100       -3.7058866E-18
   84.34250       -3.7032624E-18
   84.50400       -3.6845644E-18
   84.66550       -3.6591505E-18
   84.82700       -3.6397895E-18
   84.98850       -3.6362446E-18
   85.15000       -3.6503348E-18
   85.31150       -3.6749997E-18
   85.47300       -3.6978443E-18
   85.63450       -3.7073855E-18
   85.79600       -3.6988283E-18
   85.95750       -3.6764654E-18
   86.11900       -3.6514916E-18
   86.28050       -3.6363546E-18
   86.44200       -3.6384979E-18
   86.60350       -3.6566491E-18
   86.76500       -3.6815092E-18
   86.92650       -3.7004648E-18
   87.08800       -3.7039249E-18
   87.24950       -3.6900928E-18
   87.41100       -3.6658089E-18
   87.57250       -3.6430957E-18
   87.73400       -3.6331692E-18
   87.89550       -3.6409054E-18
   88.05700       -3.6624902E-18
   88.21850       -3.6873693E-18
   88.38000       -3.7035068E-18
   88.54150       -3.7033521E-18
   88.70300       -3.6875637E-18
   88.86450       -3.6646479E-18
   89.02600       -3.6466907E-18
   89.18750       -3.6432980E-18
   89.34900       -3.6567558E-18
   89.51050       -3.6808226E-18
   89.67200       -3.7037806E-18
   89.83350       -3.7142428E-18
   89.99500       -3.7068577E-18
   90.15650       -3.6850458E-18
   90.31800       -3.6593862E-18
   90.47950       -3.6424137E-18
   90.64100       -3.6423930E-18
   90.80250       -3.6592071E-18
   90.96400       -3.6844490E-18
   91.12550       -3.7056885E-18
   91.28700       -3.7127580E-18
   91.44850       -3.7028744E-18
   91.61000       -3.6819923E-18
   91.77150       -3.6617176E-18
   91.93300       -3.6533726E-18
   92.09450       -3.6622152E-18
   92.25600       -3.6847397E-18
   92.41750       -3.7104067E-18
   92.57900       -3.7269094E-18
   92.74050       -3.7263134E-18
   92.90200       -3.7089860E-18
   93.06350       -3.6833716E-18
   93.22500       -3.6617635E-18
   93.38650       -3.6542412E-18
   93.54800       -3.6637901E-18
   93.70950       -3.6850028E-18
   93.87100       -3.7069251E-18
   94.03250       -3.7185813E-18
   94.19400       -3.7144231E-18
   94.35550       -3.6970337E-18
   94.51700       -3.6757892E-18
   94.67850       -3.6621614E-18
   94.84000       -3.6639924E-18
   95.00150       -3.6815741E-18
   95.16300       -3.7074562E-18
   95.32450       -3.7300837E-18
   95.48600       -3.7394511E-18
   95.64750       -3.7319974E-18
   95.80900       -3.7123105E-18
   95.97050       -3.6908245E-18
   96.13200       -3.6786513E-18
   96.29350       -3.6820981E-18
   96.45500       -3.6995913E-18
   96.61650       -3.7225291E-18
   96.77800       -3.7396327E-18
   96.93950       -3.7426027E-18
   97.10100       -3.7302380E-18
   97.26250       -3.7089534E-18
   97.42400       -3.6894696E-18
   97.58550       -3.6813897E-18
   97.74700       -3.6884112E-18
   97.90850       -3.7065728E-18
   98.07000       -3.7263469E-18
   98.23150       -3.7374634E-18
   98.39300       -3.7340219E-18
   98.55450       -3.7173426E-18
   98.71600       -3.6951912E-18
   98.87750       -3.6778506E-18
   99.03900       -3.6730426E-18
   99.20050       -3.6822478E-18
   99.36200       -3.7001840E-18
   99.52350       -3.7175908E-18
   99.68500       -3.7258634E-18
   99.84650       -3.7212043E-18
   100.0080       -3.7063114E-18
   100.1695       -3.6888719E-18
   100.3310       -3.6776876E-18
   100.4925       -3.6783659E-18
   100.6540       -3.6906702E-18
   100.8155       -3.7087590E-18
   100.9770       -3.7241570E-18
   101.1385       -3.7299514E-18
   101.3000       -3.7241454E-18
   101.4615       -3.7105552E-18
   101.6230       -3.6968476E-18
   101.7845       -3.6907306E-18
   101.9460       -3.6961825E-18
   102.1075       -3.7115544E-18
   102.2690       -3.7304299E-18
   102.4305       -3.7447885E-18
   102.5920       -3.7488822E-18
   102.7535       -3.7419153E-18
   102.9150       -3.7282362E-18
   103.0765       -3.7150005E-18
   103.2380       -3.7085443E-18
   103.3995       -3.7113038E-18
   103.5610       -3.7208164E-18
   103.7225       -3.7311979E-18
   103.8840       -3.7362694E-18
   104.0455       -3.7327075E-18
   104.2070       -3.7216576E-18
   104.3685       -3.7080869E-18
   104.5300       -3.6982840E-18
   104.6915       -3.6968009E-18
   104.8530       -3.7043472E-18
   105.0145       -3.7175982E-18
   105.1760       -3.7309167E-18
   105.3375       -3.7390590E-18
   105.4990       -3.7395247E-18
   105.6605       -3.7334751E-18
   105.8220       -3.7248931E-18
   105.9835       -3.7185131E-18
   106.1450       -3.7175408E-18
   106.3065       -3.7222437E-18
   106.4680       -3.7299923E-18
   106.6295       -3.7366581E-18
   106.7910       -3.7386756E-18
   106.9525       -3.7347705E-18
   107.1140       -3.7265496E-18
   107.2755       -3.7177145E-18
   107.4370       -3.7122989E-18
   107.5985       -3.7127853E-18
   107.7600       -3.7189982E-18
   107.9215       -3.7282540E-18
   108.0830       -3.7366710E-18
   108.2445       -3.7409806E-18
   108.4060       -3.7399801E-18
   108.5675       -3.7349599E-18
   108.7290       -3.7289323E-18
   108.8905       -3.7250950E-18
   109.0520       -3.7252993E-18
   109.2135       -3.7292681E-18
   109.3750       -3.7348913E-18
   109.5365       -3.7393688E-18
   109.6980       -3.7405963E-18
   109.8595       -3.7381065E-18
   110.0210       -3.7331889E-18
   110.1825       -3.7282039E-18
   110.3440       -3.7254676E-18
   110.5055       -3.7262415E-18
   110.6670       -3.7302434E-18
   110.8285       -3.7358463E-18
   110.9900       -3.7408246E-18
   111.1515       -3.7433145E-18
   111.3130       -3.7425733E-18
   111.4745       -3.7392671E-18
   111.6360       -3.7351849E-18
   111.7975       -3.7325098E-18
   111.9590       -3.7329110E-18
   112.1205       -3.7368232E-18
   112.2820       -3.7432135E-18
   112.4435       -3.7499745E-18
   112.6050       -3.7548309E-18
   112.7665       -3.7563570E-18
   112.9280       -3.7546410E-18
   113.0895       -3.7512409E-18
   113.2510       -3.7484231E-18
   113.4125       -3.7480385E-18
   113.5740       -3.7505767E-18
   113.7355       -3.7548722E-18
   113.8970       -3.7586400E-18
   114.0585       -3.7595959E-18
   114.2200       -3.7566296E-18
   114.3815       -3.7504489E-18
   114.5430       -3.7433587E-18
   114.7045       -3.7382625E-18
   114.8660       -3.7373501E-18
   115.0275       -3.7411096E-18
   115.1890       -3.7481009E-18
   115.3505       -3.7556047E-18
   115.5120       -3.7608312E-18
   115.6735       -3.7621415E-18
   115.8350       -3.7597352E-18
   115.9965       -3.7555017E-18
   116.1580       -3.7520838E-18
   116.3195       -3.7515656E-18
   116.4810       -3.7544061E-18
   116.6425       -3.7591190E-18
   116.8040       -3.7629116E-18
   116.9655       -3.7630191E-18
   117.1270       -3.7581214E-18
   117.2885       -3.7491494E-18
   117.4500       -3.7390392E-18
   117.6115       -3.7314837E-18
   117.7730       -3.7292301E-18
   117.9345       -3.7327381E-18
   118.0960       -3.7398982E-18
   118.2575       -3.7469975E-18
   118.4190       -3.7505175E-18
   118.5805       -3.7488719E-18
   118.7420       -3.7432044E-18