  -27.90000        9.0050670E-18
  -27.73850        9.0303721E-18
  -27.57700        9.0664711E-18
  -27.41550        9.0948459E-18
  -27.25400        9.1054842E-18
  -27.09250        9.1032376E-18
  -26.93100        9.1035941E-18
  -26.76950        9.1209674E-18
  -26.60800        9.1578696E-18
  -26.44650        9.2026531E-18
  -26.28500        9.2374460E-18
  -26.12350        9.2506271E-18
  -25.96200        9.2450031E-18
  -25.80050        9.2358835E-18
  -25.63900        9.2404024E-18
  -25.47750        9.2656413E-18
  -25.31600        9.3038959E-18
  -25.15450        9.3383753E-18
  -24.99300        9.3552299E-18
  -24.83150        9.3533431E-18
  -24.67000        9.3449894E-18
  -24.50850        9.3469515E-18
  -24.34700        9.3684913E-18
  -24.18550        9.4047317E-18
  -24.02400        9.4401566E-18
  -23.86250        9.4596929E-18
  -23.70100        9.4594621E-18
  -23.53950        9.4495401E-18
  -23.37800        9.4467715E-18
  -23.21650        9.4627816E-18
  -23.05500        9.4956959E-18
  -22.89350        9.5314781E-18
  -22.73200        9.5538980E-18
  -22.57050        9.5560404E-18
  -22.40900        9.5451613E-18
  -22.24750        9.5374710E-18
  -22.08600        9.5465692E-18
  -21.92450        9.5738074E-18
  -21.76300        9.6074207E-18
  -21.60150        9.6310616E-18
  -21.44000        9.6356202E-18
  -21.27850        9.6258950E-18
  -21.11700        9.6173080E-18
  -20.95550        9.6249851E-18
  -20.79400        9.6529223E-18
  -20.63250        9.6909809E-18
  -20.47100        9.7218455E-18
  -20.30950        9.7330736E-18
  -20.14800        9.7256993E-18
  -19.98650        9.7133371E-18
  -19.82500        9.7124297E-18
  -19.66350        9.7305788E-18
  -19.50200        9.7612383E-18
  -19.34050        9.7885154E-18
  -19.17900        9.7986781E-18
  -19.01750        9.7901789E-18
  -18.85600        9.7750737E-18
  -18.69450        9.7707633E-18
  -18.53300        9.7878628E-18
  -18.37150        9.8227160E-18
  -18.21000        9.8598341E-18
  -18.04850        9.8825642E-18
  -17.88700        9.8844733E-18
  -17.72550        9.8734884E-18
  -17.56400        9.8659155E-18
  -17.40250        9.8746505E-18
  -17.24100        9.8999308E-18
  -17.07950        9.9292023E-18
  -16.91800        9.9461529E-18
  -16.75650        9.9425100E-18
  -16.59500        9.9242260E-18
  -16.43350        9.9076658E-18
  -16.27200        9.9084740E-18
  -16.11050        9.9309633E-18
  -15.94900        9.9654518E-18
  -15.78750        9.9953453E-18
  -15.62600        1.0008895E-17
  -15.46450        1.0007290E-17
  -15.30300        1.0003456E-17
  -15.14150        1.0012480E-17
  -14.98000        1.0040547E-17
  -14.81850        1.0080242E-17
  -14.65700        1.0115505E-17
  -14.49550        1.0132729E-17
  -14.33400        1.0130123E-17
  -14.17250        1.0118736E-17
  -14.01100        1.0114483E-17
  -13.84950        1.0126860E-17
  -13.68800        1.0152317E-17
  -13.52650        1.0176983E-17
  -13.36500        1.0186718E-17
  -13.20350        1.0177342E-17
  -13.04200        1.0157771E-17
  -12.88050        1.0143844E-17
  -12.71900        1.0147250E-17
  -12.55750        1.0167427E-17
  -12.39600        1.0192179E-17
  -12.23450        1.0206555E-17
  -12.07300        1.0203666E-17
  -11.91150        1.0189713E-17
  -11.75000        1.0179643E-17
  -11.58850        1.0186494E-17
  -11.42700        1.0211988E-17
  -11.26550        1.0245095E-17
  -11.10400        1.0269623E-17
  -10.94250        1.0275492E-17
  -10.78100        1.0265699E-17
  -10.61950        1.0254035E-17
  -10.45800        1.0255176E-17
  -10.29650        1.0274174E-17
  -10.13500        1.0302881E-17
  -9.973500        1.0325857E-17
  -9.812000        1.0331582E-17
  -9.650500        1.0320983E-17
  -9.489000        1.0307156E-17
  -9.327500        1.0306395E-17
  -9.166000        1.0326839E-17
  -9.004500        1.0362739E-17
  -8.843000        1.0398427E-17
  -8.681500        1.0419181E-17
  -8.520000        1.0421347E-17
  -8.358500        1.0414579E-17
  -8.197000        1.0414668E-17
  -8.035500        1.0432045E-17
  -7.874000        1.0464149E-17
  -7.712500        1.0497064E-17
  -7.551000        1.0515294E-17
  -7.389500        1.0512770E-17
  -7.228000        1.0497283E-17
  -7.066500        1.0485183E-17
  -6.905000        1.0490070E-17
  -6.743500        1.0513447E-17
  -6.582000        1.0543922E-17
  -6.420500        1.0565448E-17
  -6.259000        1.0568715E-17
  -6.097500        1.0557620E-17
  -5.936000        1.0546275E-17
  -5.774500        1.0548772E-17
  -5.613000        1.0569042E-17
  -5.451500        1.0598006E-17
  -5.290000        1.0619997E-17
  -5.128500        1.0623829E-17
  -4.967000        1.0610648E-17
  -4.805500        1.0593048E-17
  -4.644000        1.0586152E-17
  -4.482500        1.0597025E-17
  -4.321000        1.0619922E-17
  -4.159500        1.0640674E-17
  -3.998000        1.0647002E-17
  -3.836500        1.0637392E-17
  -3.675000        1.0622168E-17
  -3.513500        1.0616070E-17
  -3.352000        1.0627681E-17
  -3.190500        1.0653305E-17
  -3.029000        1.0679671E-17
  -2.867500        1.0693482E-17
  -2.706000        1.0690906E-17
  -2.544500        1.0680207E-17
  -2.383000        1.0675655E-17
  -2.221500        1.0687159E-17
  -2.060000        1.0713076E-17
  -1.898500        1.0741337E-17
  -1.737000        1.0757998E-17
  -1.575500        1.0757074E-17
  -1.414000        1.0744675E-17
  -1.252500        1.0734547E-17
  -1.091000        1.0738291E-17
 -0.9295000        1.0757215E-17
 -0.7680000        1.0781585E-17
 -0.6065000        1.0797761E-17
 -0.4450000        1.0798113E-17
 -0.2835000        1.0786697E-17
 -0.1220000        1.0776619E-17
  3.9500002E-02    1.0780937E-17
  0.2010000        1.0803506E-17
  0.3625000        1.0836229E-17
  0.5240000        1.0864665E-17
  0.6855000        1.0878020E-17
  0.8470000        1.0876462E-17
   1.008500        1.0870634E-17
   1.170000        1.0873767E-17
   1.331500        1.0892078E-17
   1.493000        1.0920258E-17
   1.654500        1.0945214E-17
   1.816000        1.0955317E-17
   1.977500        1.0948597E-17
   2.139000        1.0934166E-17
   2.300500        1.0925960E-17
   2.462000        1.0933251E-17
   2.623500        1.0954572E-17
   2.785000        1.0979143E-17
   2.946500        1.0994666E-17
   3.108000        1.0995964E-17
   3.269500        1.0988423E-17
   3.431000        1.0983966E-17
   3.592500        1.0992469E-17
   3.754000        1.1014677E-17
   3.915500        1.1041580E-17
   4.077000        1.1060625E-17
   4.238500        1.1064365E-17
   4.400000        1.1055446E-17
   4.561500        1.1044507E-17
   4.723000        1.1042587E-17
   4.884500        1.1053446E-17
   5.046000        1.1071207E-17
   5.207500        1.1084828E-17
   5.369000        1.1086104E-17
   5.530500        1.1075485E-17
   5.692000        1.1061699E-17
   5.853500        1.1055578E-17
   6.015000        1.1062542E-17
   6.176500        1.1079004E-17
   6.338000        1.1095119E-17
   6.499500        1.1101834E-17
   6.661000        1.1097263E-17
   6.822500        1.1087956E-17
   6.984000        1.1084246E-17
   7.145500        1.1092954E-17
   7.307000        1.1112557E-17
   7.468500        1.1134198E-17
   7.630000        1.1147826E-17
   7.791500        1.1149168E-17
   7.953000        1.1142640E-17
   8.114500        1.1138156E-17
   8.276000        1.1144094E-17
   8.437500        1.1161404E-17
   8.599000        1.1183003E-17
   8.760500        1.1198887E-17
   8.922000        1.1203304E-17
   9.083500        1.1198937E-17
   9.245000        1.1195153E-17
   9.406500        1.1201547E-17
   9.568000        1.1221279E-17
   9.729500        1.1248832E-17
   9.891000        1.1273692E-17
   10.05250        1.1287434E-17
   10.21400        1.1289319E-17
   10.37550        1.1286572E-17
   10.53700        1.1289162E-17
   10.69850        1.1302681E-17
   10.86000        1.1324228E-17
   11.02150        1.1344250E-17
   11.18300        1.1353130E-17
   11.34450        1.1348014E-17
   11.50600        1.1335101E-17
   11.66750        1.1325678E-17
   11.82900        1.1328577E-17
   11.99050        1.1344240E-17
   12.15200        1.1364589E-17
   12.31350        1.1378767E-17
   12.47500        1.1380781E-17
   12.63650        1.1373680E-17
   12.79800        1.1367344E-17
   12.95950        1.1371442E-17
   13.12100        1.1388504E-17
   13.28250        1.1411943E-17
   13.44400        1.1430453E-17
   13.60550        1.1435749E-17
   13.76700        1.1428281E-17
   13.92850        1.1416983E-17
   14.09000        1.1413138E-17
   14.25150        1.1422608E-17
   14.41300        1.1441776E-17
   14.57450        1.1460099E-17
   14.73600        1.1467571E-17
   14.89750        1.1461884E-17
   15.05900        1.1450222E-17
   15.22050        1.1444323E-17
   15.38200        1.1452225E-17
   15.54350        1.1472536E-17
   15.70500        1.1495341E-17
   15.86650        1.1509198E-17
   16.02800        1.1509244E-17
   16.18950        1.1500628E-17
   16.35100        1.1494797E-17
   16.51250        1.1501230E-17
   16.67400        1.1520544E-17
   16.83550        1.1543893E-17
   16.99700        1.1559124E-17
   17.15850        1.1559368E-17
   17.32000        1.1547963E-17
   17.48150        1.1536200E-17
   17.64300        1.1535441E-17
   17.80450        1.1549154E-17
   17.96600        1.1570543E-17
   18.12750        1.1587517E-17
   18.28900        1.1591546E-17
   18.45050        1.1584057E-17
   18.61200        1.1575725E-17
   18.77350        1.1578971E-17
   18.93500        1.1598977E-17
   19.09650        1.1629670E-17
   19.25800        1.1657705E-17
   19.41950        1.1671710E-17
   19.58100        1.1670216E-17
   19.74250        1.1662499E-17
   19.90400        1.1661676E-17
   20.06550        1.1674972E-17
   20.22700        1.1698229E-17
   20.38850        1.1718694E-17
   20.55000        1.1724177E-17
   20.71150        1.1712027E-17
   20.87300        1.1691437E-17
   21.03450        1.1677319E-17
   21.19600        1.1680035E-17
   21.35750        1.1698257E-17
   21.51900        1.1720073E-17
   21.68050        1.1731621E-17
   21.84200        1.1727110E-17
   22.00350        1.1713083E-17
   22.16500        1.1703810E-17
   22.32650        1.1711022E-17
   22.48800        1.1735304E-17
   22.64950        1.1765361E-17
   22.81100        1.1785796E-17
   22.97250        1.1787933E-17
   23.13400        1.1775965E-17
   23.29550        1.1763961E-17
   23.45700        1.1765805E-17
   23.61850        1.1785248E-17
   23.78000        1.1813197E-17
   23.94150        1.1834238E-17
   24.10300        1.1837716E-17
   24.26450        1.1825444E-17
   24.42600        1.1810464E-17
   24.58750        1.1807762E-17
   24.74900        1.1823569E-17
   24.91050        1.1850953E-17
   25.07200        1.1874826E-17
   25.23350        1.1882789E-17
   25.39500        1.1873973E-17
   25.55650        1.1859577E-17
   25.71800        1.1854700E-17
   25.87950        1.1867405E-17
   26.04100        1.1892869E-17
   26.20250        1.1916837E-17
   26.36400        1.1925871E-17
   26.52550        1.1917010E-17
   26.68700        1.1899879E-17
   26.84850        1.1889736E-17
   27.01000        1.1896510E-17
   27.17150        1.1917739E-17
   27.33300        1.1940523E-17
   27.49450        1.1951042E-17
   27.65600        1.1944751E-17
   27.81750        1.1929835E-17
   27.97900        1.1921386E-17
   28.14050        1.1930500E-17
   28.30200        1.1956178E-17
   28.46350        1.1985903E-17
   28.62500        1.2004533E-17
   28.78650        1.2005043E-17
   28.94800        1.1993401E-17
   29.10950        1.1984018E-17
   29.27100        1.1989115E-17
   29.43250        1.2009711E-17
   29.59400        1.2034810E-17
   29.75550        1.2049389E-17
   29.91700        1.2045429E-17
   30.07850        1.2027957E-17
   30.24000        1.2011719E-17
   30.40150        1.2010830E-17
   30.56300        1.2028843E-17
   30.72450        1.2056338E-17
   30.88600        1.2077746E-17
   31.04750        1.2082473E-17
   31.20900        1.2072359E-17
   31.37050        1.2060132E-17
   31.53200        1.2060032E-17
   31.69350        1.2077354E-17
   31.85500        1.2104441E-17
   32.01650        1.2125998E-17
   32.17800        1.2129934E-17
   32.33950        1.2115969E-17
   32.50100        1.2095872E-17
   32.66250        1.2085146E-17
   32.82400        1.2092131E-17
   32.98550        1.2112327E-17
   33.14700        1.2131975E-17
   33.30850        1.2138273E-17
   33.47000        1.2128799E-17
   33.63150        1.2113349E-17
   33.79300        1.2106897E-17
   33.95450        1.2118830E-17
   34.11600        1.2146242E-17
   34.27750        1.2176089E-17
   34.43900        1.2194546E-17
   34.60050        1.2196750E-17
   34.76200        1.2189908E-17
   34.92350        1.2187681E-17
   35.08500        1.2200017E-17
   35.24650        1.2225839E-17
   35.40800        1.2253785E-17
   35.56950        1.2270325E-17
   35.73100        1.2269348E-17
   35.89250        1.2256355E-17
   36.05400        1.2244351E-17
   36.21550        1.2244473E-17
   36.37700        1.2258119E-17
   36.53850        1.2276189E-17
   36.70000        1.2285961E-17
   36.86150        1.2280546E-17
   37.02300        1.2264126E-17
   37.18450        1.2249146E-17
   37.34600        1.2247490E-17
   37.50750        1.2262010E-17
   37.66900        1.2284533E-17
   37.83050        1.2301782E-17
   37.99200        1.2304910E-17
   38.15350        1.2295716E-17
   38.31500        1.2285065E-17
   38.47650        1.2284731E-17
   38.63800        1.2298695E-17
   38.79950        1.2320209E-17
   38.96100        1.2336707E-17
   39.12250        1.2338936E-17
   39.28400        1.2327666E-17
   39.44550        1.2313221E-17
   39.60700        1.2308203E-17
   39.76850        1.2318681E-17
   39.93000        1.2340087E-17
   40.09150        1.2360685E-17
   40.25300        1.2370014E-17
   40.41450        1.2366286E-17
   40.57600        1.2357486E-17
   40.73750        1.2355445E-17
   40.89900        1.2367165E-17
   41.06050        1.2389602E-17
   41.22200        1.2411675E-17
   41.38350        1.2422100E-17
   41.54500        1.2417452E-17
   41.70650        1.2404619E-17
   41.86800        1.2395902E-17
   42.02950        1.2400279E-17
   42.19100        1.2417173E-17
   42.35250        1.2437180E-17
   42.51400        1.2449118E-17
   42.67550        1.2448224E-17
   42.83700        1.2439535E-17
   42.99850        1.2434081E-17
   43.16000        1.2440776E-17
   43.32150        1.2459912E-17
   43.48300        1.2482956E-17
   43.64450        1.2498649E-17
   43.80600        1.2500942E-17
   43.96750        1.2493095E-17
   44.12900        1.2485137E-17
   44.29050        1.2486614E-17
   44.45200        1.2499846E-17
   44.61350        1.2518444E-17
   44.77500        1.2532046E-17
   44.93650        1.2533846E-17
   45.09800        1.2525497E-17
   45.25950        1.2515904E-17
   45.42100        1.2514808E-17
   45.58250        1.2525801E-17
   45.74400        1.2543804E-17
   45.90550        1.2558833E-17
   46.06700        1.2563300E-17
   46.22850        1.2557575E-17
   46.39000        1.2549724E-17
   46.55150        1.2549627E-17
   46.71300        1.2561775E-17
   46.87450        1.2581995E-17
   47.03600        1.2600465E-17
   47.19750        1.2608743E-17
   47.35900        1.2605671E-17
   47.52050        1.2597890E-17
   47.68200        1.2594717E-17
   47.84350        1.2601212E-17
   48.00500        1.2614477E-17
   48.16650        1.2625839E-17
   48.32800        1.2627271E-17
   48.48950        1.2617380E-17
   48.65100        1.2602632E-17
   48.81250        1.2592984E-17
   48.97400        1.2595071E-17
   49.13550        1.2607798E-17
   49.29700        1.2623439E-17
   49.45850        1.2633356E-17
   49.62000        1.2634228E-17
   49.78150        1.2630294E-17
   49.94300        1.2630035E-17
   50.10450        1.2639712E-17
   50.26600        1.2658491E-17
   50.42750        1.2678719E-17
   50.58900        1.2691193E-17
   50.75050        1.2691617E-17
   50.91200        1.2683590E-17
   51.07350        1.2676003E-17
   51.23500        1.2676727E-17
   51.39650        1.2687171E-17
   51.55800        1.2701579E-17
   51.71950        1.2711476E-17
   51.88100        1.2711979E-17
   52.04250        1.2705356E-17
   52.20400        1.2699318E-17
   52.36550        1.2701372E-17
   52.52700        1.2713366E-17
   52.68850        1.2730162E-17
   52.85000        1.2743316E-17
   53.01150        1.2747084E-17
   53.17300        1.2742455E-17
   53.33450        1.2736360E-17
   53.49600        1.2736706E-17
   53.65750        1.2746795E-17
   53.81900        1.2763128E-17
   53.98050        1.2778083E-17
   54.14200        1.2785457E-17
   54.30350        1.2784880E-17
   54.46500        1.2781942E-17
   54.62650        1.2783988E-17
   54.78800        1.2794657E-17
   54.94950        1.2811115E-17
   55.11100        1.2826009E-17
   55.27250        1.2832727E-17
   55.43400        1.2830164E-17
   55.59550        1.2823496E-17
   55.75700        1.2820447E-17
   55.91850        1.2825751E-17
   56.08000        1.2837839E-17
   56.24150        1.2850131E-17
   56.40300        1.2855919E-17
   56.56450        1.2853265E-17
   56.72600        1.2846315E-17
   56.88750        1.2842150E-17
   57.04900        1.2845504E-17
   57.21050        1.2855261E-17
   57.37200        1.2865280E-17
   57.53350        1.2868889E-17
   57.69500        1.2863783E-17
   57.85650        1.2853794E-17
   58.01800        1.2846307E-17
   58.17950        1.2847204E-17
   58.34100        1.2856929E-17
   58.50250        1.2870397E-17
   58.66400        1.2880755E-17
   58.82550        1.2884273E-17
   58.98700        1.2882876E-17
   59.14850        1.2882546E-17
   59.31000        1.2888780E-17
   59.47150        1.2902362E-17
   59.63300        1.2918502E-17
   59.79450        1.2930045E-17
   59.95600        1.2932469E-17
   60.11750        1.2927147E-17
   60.27900        1.2920477E-17
   60.44050        1.2919456E-17
   60.60200        1.2926880E-17
   60.76350        1.2939588E-17
   60.92500        1.2951006E-17
   61.08650        1.2956079E-17
   61.24800        1.2954967E-17
   61.40950        1.2952828E-17
   61.57100        1.2955886E-17
   61.73250        1.2966709E-17
   61.89400        1.2982156E-17
   62.05550        1.2995474E-17
   62.21700        1.3000995E-17
   62.37850        1.2998054E-17
   62.54000        1.2991359E-17
   62.70150        1.2987612E-17
   62.86300        1.2990849E-17
   63.02450        1.2999773E-17
   63.18600        1.3008932E-17
   63.34750        1.3012840E-17
   63.50900        1.3010057E-17
   63.67050        1.3004325E-17
   63.83200        1.3001919E-17
   63.99350        1.3007106E-17
   64.15500        1.3018957E-17
   64.31650        1.3031888E-17
   64.47800        1.3039589E-17
   64.63950        1.3039567E-17
   64.80100        1.3034994E-17
   64.96250        1.3032484E-17
   65.12400        1.3037353E-17
   65.28550        1.3049809E-17
   65.44700        1.3064849E-17
   65.60850        1.3075909E-17
   65.77000        1.3079593E-17
   65.93150        1.3078003E-17
   66.09300        1.3077016E-17
   66.25450        1.3081817E-17
   66.41600        1.3092981E-17
   66.57750        1.3105934E-17
   66.73900        1.3114158E-17
   66.90050        1.3113819E-17
   67.06200        1.3106523E-17
   67.22350        1.3098293E-17
   67.38500        1.3095502E-17
   67.54650        1.3100619E-17
   67.70800        1.3110713E-17
   67.86950        1.3119702E-17
   68.03100        1.3122792E-17
   68.19250        1.3119935E-17
   68.35400        1.3115875E-17
   68.51550        1.3116694E-17
   68.67700        1.3125324E-17
   68.83850        1.3139268E-17
   69.00000        1.3152221E-17
   69.16150        1.3158515E-17
   69.32300        1.3157177E-17
   69.48450        1.3152663E-17
   69.64600        1.3151672E-17
   69.80750        1.3158361E-17
   69.96900        1.3171436E-17
   70.13050        1.3185200E-17
   70.29200        1.3193747E-17
   70.45350        1.3195185E-17
   70.61500        1.3192839E-17
   70.77650        1.3192644E-17
   70.93800        1.3198685E-17
   71.09950        1.3210134E-17
   71.26100        1.3221743E-17
   71.42250        1.3227527E-17
   71.58400        1.3224972E-17
   71.74550        1.3216829E-17
   71.90700        1.3209242E-17
   72.06850        1.3207542E-17
   72.23000        1.3212651E-17
   72.39150        1.3220605E-17
   72.55300        1.3225519E-17
   72.71450        1.3223915E-17
   72.87600        1.3217319E-17
   73.03750        1.3211237E-17
   73.19900        1.3211181E-17
   73.36050        1.3218569E-17
   73.52200        1.3229530E-17
   73.68350        1.3237539E-17
   73.84500        1.3238048E-17
   74.00650        1.3231771E-17
   74.16800        1.3224242E-17
   74.32950        1.3221923E-17
   74.49100        1.3227655E-17
   74.65250        1.3238730E-17
   74.81400        1.3248936E-17
   74.97550        1.3253113E-17
   75.13700        1.3250903E-17
   75.29850        1.3247034E-17
   75.46000        1.3247944E-17
   75.62150        1.3257192E-17
   75.78300        1.3272889E-17
   75.94450        1.3288972E-17
   76.10600        1.3299411E-17
   76.26750        1.3302410E-17
   76.42900        1.3301638E-17
   76.59050        1.3303618E-17
   76.75200        1.3313069E-17
   76.91350        1.3329498E-17
   77.07500        1.3347442E-17
   77.23650        1.3360248E-17
   77.39800        1.3364722E-17
   77.55950        1.3363351E-17
   77.72100        1.3362506E-17
   77.88250        1.3367839E-17
   78.04400        1.3380165E-17
   78.20550        1.3394788E-17
   78.36700        1.3404818E-17
   78.52850        1.3406124E-17
   78.69000        1.3400338E-17
   78.85150        1.3393767E-17
   79.01300        1.3392948E-17
   79.17450        1.3400065E-17
   79.33600        1.3411480E-17
   79.49750        1.3420436E-17
   79.65900        1.3421979E-17
   79.82050        1.3416543E-17
   79.98200        1.3409655E-17
   80.14350        1.3407952E-17
   80.30500        1.3414403E-17
   80.46650        1.3426151E-17
   80.62800        1.3436509E-17
   80.78950        1.3439682E-17
   80.95100        1.3434853E-17
   81.11250        1.3426753E-17
   81.27400        1.3422300E-17
   81.43550        1.3425667E-17
   81.59700        1.3435270E-17
   81.75850        1.3444854E-17
   81.92000        1.3447943E-17
   82.08150        1.3442494E-17
   82.24300        1.3432416E-17
   82.40450        1.3424831E-17
   82.56600        1.3424964E-17
   82.72750        1.3432342E-17
   82.88900        1.3441054E-17
   83.05050        1.3443994E-17
   83.21200        1.3438087E-17
   83.37350        1.3426668E-17
   83.53500        1.3417253E-17
   83.69650        1.3416217E-17
   83.85800        1.3424274E-17
   84.01950        1.3436020E-17
   84.18100        1.3443916E-17
   84.34250        1.3443817E-17
   84.50400        1.3438045E-17
   84.66550        1.3433769E-17
   84.82700        1.3437847E-17
   84.98850        1.3451824E-17
   85.15000        1.3470697E-17
   85.31150        1.3486346E-17
   85.47300        1.3493158E-17
   85.63450        1.3491877E-17
   85.79600        1.3488942E-17
   85.95750        1.3491788E-17
   86.11900        1.3503440E-17
   86.28050        1.3520217E-17
   86.44200        1.3534250E-17
   86.60350        1.3539078E-17
   86.76500        1.3534385E-17
   86.92650        1.3526418E-17
   87.08800        1.3523704E-17
   87.24950        1.3531048E-17
   87.41100        1.3546133E-17
   87.57250        1.3561212E-17
   87.73400        1.3568717E-17
   87.89550        1.3566775E-17
   88.05700        1.3560589E-17
   88.21850        1.3558646E-17
   88.38000        1.3566492E-17
   88.54150        1.3582623E-17
   88.70300        1.3599475E-17
   88.86450        1.3608804E-17
   89.02600        1.3607523E-17
   89.18750        1.3599782E-17
   89.34900        1.3593890E-17
   89.51050        1.3596313E-17
   89.67200        1.3607086E-17
   89.83350        1.3619859E-17
   89.99500        1.3626508E-17
   90.15650        1.3623003E-17
   90.31800        1.3612333E-17
   90.47950        1.3602422E-17
   90.64100        1.3600519E-17
   90.80250        1.3608065E-17
   90.96400        1.3619707E-17
   91.12550        1.3627184E-17
   91.28700        1.3625346E-17
   91.44850        1.3615982E-17
   91.61000        1.3606619E-17
   91.77150        1.3605118E-17
   91.93300        1.3613940E-17
   92.09450        1.3628312E-17
   92.25600        1.3639668E-17
   92.41750        1.3641877E-17
   92.57900        1.3635674E-17
   92.74050        1.3628047E-17
   92.90200        1.3627053E-17
   93.06350        1.3635856E-17
   93.22500        1.3650399E-17
   93.38650        1.3662366E-17
   93.54800        1.3665269E-17
   93.70950        1.3659181E-17
   93.87100        1.3650690E-17
   94.03250        1.3648161E-17
   94.19400        1.3655747E-17
   94.35550        1.3670472E-17
   94.51700        1.3684400E-17
   94.67850        1.3690331E-17
   94.84000        1.3686939E-17
   95.00150        1.3679710E-17
   95.16300        1.3677010E-17
   95.32450        1.3684072E-17
   95.48600        1.3699214E-17
   95.64750        1.3715013E-17
   95.80900        1.3723626E-17
   95.97050        1.3722466E-17
   96.13200        1.3716127E-17
   96.29350        1.3713128E-17
   96.45500        1.3719771E-17
   96.61650        1.3735537E-17
   96.77800        1.3753389E-17
   96.93950        1.3764777E-17
   97.10100        1.3765704E-17
   97.26250        1.3759437E-17
   97.42400        1.3753912E-17
   97.58550        1.3755804E-17
   97.74700        1.3765637E-17
   97.90850        1.3777444E-17
   98.07000        1.3783166E-17
   98.23150        1.3778501E-17
   98.39300        1.3765990E-17
   98.55450        1.3753187E-17
   98.71600        1.3747333E-17
   98.87750        1.3750414E-17
   99.03900        1.3758079E-17
   99.20050        1.3763071E-17
   99.36200        1.3760604E-17
   99.52350        1.3751849E-17
   99.68500        1.3743074E-17
   99.84650        1.3741139E-17
   100.0080        1.3748586E-17
   100.1695        1.3761837E-17
   100.3310        1.3773779E-17
   100.4925        1.3778842E-17
   100.6540        1.3776900E-17
   100.8155        1.3773154E-17
   100.9770        1.3774116E-17
   101.1385        1.3782663E-17
   101.3000        1.3795800E-17
   101.4615        1.3806793E-17
   101.6230        1.3810067E-17
   101.7845        1.3805242E-17
   101.9460        1.3797342E-17
   102.1075        1.3793061E-17
   102.2690        1.3795917E-17
   102.4305        1.3803874E-17
   102.5920        1.3811121E-17
   102.7535        1.3812583E-17
   102.9150        1.3807765E-17
   103.0765        1.3801165E-17
   103.2380        1.3799003E-17
   103.3995        1.3804771E-17
   103.5610        1.3816818E-17
   103.7225        1.3829640E-17
   103.8840        1.3837871E-17
   104.0455        1.3840035E-17
   104.2070        1.3839436E-17
   104.3685        1.3841599E-17
   104.5300        1.3850180E-17
   104.6915        1.3864291E-17
   104.8530        1.3879090E-17
   105.0145        1.3889228E-17
   105.1760        1.3892619E-17
   105.3375        1.3891856E-17
   105.4990        1.3892232E-17
   105.6605        1.3897834E-17
   105.8220        1.3908554E-17
   105.9835        1.3920201E-17
   106.1450        1.3927601E-17
   106.3065        1.3928365E-17
   106.4680        1.3924532E-17
   106.6295        1.3920934E-17
   106.7910        1.3921582E-17
   106.9525        1.3926813E-17
   107.1140        1.3933260E-17
   107.2755        1.3936561E-17
   107.4370        1.3934655E-17
   107.5985        1.3929214E-17
   107.7600        1.3924275E-17
   107.9215        1.3923241E-17
   108.0830        1.3926527E-17
   108.2445        1.3931512E-17
   108.4060        1.3934638E-17
   108.5675        1.3934018E-17
   108.7290        1.3930661E-17
   108.8905        1.3927558E-17
   109.0520        1.3927387E-17
   109.2135        1.3930593E-17
   109.3750        1.3935161E-17
   109.5365        1.3938174E-17
   109.6980        1.3937985E-17
   109.8595        1.3935368E-17
   110.0210        1.3932838E-17
   110.1825        1.3932656E-17
   110.3440        1.3935078E-17
   110.5055        1.3938167E-17
   110.6670        1.3939381E-17
   110.8285        1.3937648E-17
   110.9900        1.3934291E-17
   111.1515        1.3932069E-17
   111.3130        1.3933057E-17
   111.4745        1.3937110E-17
   111.6360        1.3942129E-17
   111.7975        1.3945878E-17
   111.9590        1.3947862E-17
   112.1205        1.3949695E-17
   112.2820        1.3953711E-17
   112.4435        1.3960939E-17
   112.6050        1.3970111E-17
   112.7665        1.3978495E-17
   112.9280        1.3983847E-17
   113.0895        1.3985958E-17
   113.2510        1.3986593E-17
   113.4125        1.3987968E-17
   113.5740        1.3990964E-17
   113.7355        1.3994477E-17
   113.8970        1.3996339E-17
   114.0585        1.3995145E-17
   114.2200        1.3991527E-17
   114.3815        1.3987948E-17
   114.5430        1.3987083E-17
   114.7045        1.3989978E-17
   114.8660        1.3995332E-17
   115.0275        1.4000484E-17
   115.1890        1.4003465E-17
   115.3505        1.4004552E-17
   115.5120        1.4006130E-17
   115.6735        1.4010838E-17
   115.8350        1.4019376E-17
   115.9965        1.4029703E-17
   116.1580        1.4038375E-17
   116.3195        1.4043116E-17
   116.4810        1.4044607E-17
   116.6425        1.4046013E-17
   116.8040        1.4050490E-17
   116.9655        1.4058575E-17
   117.1270        1.4067500E-17
   117.2885        1.4073130E-17
   117.4500        1.4073047E-17
   117.6115        1.4068455E-17
   117.7730        1.4063358E-17
   117.9345        1.4061599E-17
   118.0960        1.4064009E-17
   118.2575        1.4067828E-17
   118.4190        1.4068878E-17
   118.5805        1.4064898E-17
   118.7420        1.4057489E-17