  -27.90000       -1.6300266E-18
  -27.73850       -1.6326881E-18
  -27.57700       -1.6364815E-18
  -27.41550       -1.6394587E-18
  -27.25400       -1.6405780E-18
  -27.09250       -1.6403645E-18
  -26.93100       -1.6404445E-18
  -26.76950       -1.6423114E-18
  -26.60800       -1.6461997E-18
  -26.44650       -1.6508776E-18
  -26.28500       -1.6544952E-18
  -26.12350       -1.6558765E-18
  -25.96200       -1.6553432E-18
  -25.80050       -1.6544793E-18
  -25.63900       -1.6550275E-18
  -25.47750       -1.6576843E-18
  -25.31600       -1.6616480E-18
  -25.15450       -1.6652152E-18
  -24.99300       -1.6669950E-18
  -24.83150       -1.6668799E-18
  -24.67000       -1.6661055E-18
  -24.50850       -1.6663659E-18
  -24.34700       -1.6686082E-18
  -24.18550       -1.6723590E-18
  -24.02400       -1.6760503E-18
  -23.86250       -1.6781337E-18
  -23.70100       -1.6781871E-18
  -23.53950       -1.6772258E-18
  -23.37800       -1.6769863E-18
  -23.21650       -1.6786859E-18
  -23.05500       -1.6821413E-18
  -22.89350       -1.6858907E-18
  -22.73200       -1.6882374E-18
  -22.57050       -1.6884672E-18
  -22.40900       -1.6873604E-18
  -22.24750       -1.6866194E-18
  -22.08600       -1.6876381E-18
  -21.92450       -1.6905073E-18
  -21.76300       -1.6939778E-18
  -21.60150       -1.6963881E-18
  -21.44000       -1.6968698E-18
  -21.27850       -1.6959641E-18
  -21.11700       -1.6952274E-18
  -20.95550       -1.6961349E-18
  -20.79400       -1.6990459E-18
  -20.63250       -1.7029502E-18
  -20.47100       -1.7061515E-18
  -20.30950       -1.7074203E-18
  -20.14800       -1.7068201E-18
  -19.98650       -1.7056483E-18
  -19.82500       -1.7055311E-18
  -19.66350       -1.7072926E-18
  -19.50200       -1.7103745E-18
  -19.34050       -1.7132248E-18
  -19.17900       -1.7144066E-18
  -19.01750       -1.7136624E-18
  -18.85600       -1.7121635E-18
  -18.69450       -1.7117207E-18
  -18.53300       -1.7134996E-18
  -18.37150       -1.7171726E-18
  -18.21000       -1.7211386E-18
  -18.04850       -1.7236509E-18
  -17.88700       -1.7240380E-18
  -17.72550       -1.7231251E-18
  -17.56400       -1.7225785E-18
  -17.40250       -1.7236716E-18
  -17.24100       -1.7263754E-18
  -17.07950       -1.7294090E-18
  -16.91800       -1.7311886E-18
  -16.75650       -1.7309645E-18
  -16.59500       -1.7293525E-18
  -16.43350       -1.7279076E-18
  -16.27200       -1.7280870E-18
  -16.11050       -1.7303073E-18
  -15.94900       -1.7337130E-18
  -15.78750       -1.7367875E-18
  -15.62600       -1.7383966E-18
  -15.46450       -1.7385649E-18
  -15.30300       -1.7384524E-18
  -15.14150       -1.7395207E-18
  -14.98000       -1.7424520E-18
  -14.81850       -1.7465892E-18
  -14.65700       -1.7503270E-18
  -14.49550       -1.7522097E-18
  -14.33400       -1.7519485E-18
  -14.17250       -1.7506225E-18
  -14.01100       -1.7498898E-18
  -13.84950       -1.7507726E-18
  -13.68800       -1.7529155E-18
  -13.52650       -1.7548771E-18
  -13.36500       -1.7552326E-18
  -13.20350       -1.7536531E-18
  -13.04200       -1.7511558E-18
  -12.88050       -1.7493737E-18
  -12.71900       -1.7494188E-18
  -12.55750       -1.7511620E-18
  -12.39600       -1.7534128E-18
  -12.23450       -1.7548140E-18
  -12.07300       -1.7548029E-18
  -11.91150       -1.7539912E-18
  -11.75000       -1.7537220E-18
  -11.58850       -1.7551300E-18
  -11.42700       -1.7583509E-18
  -11.26550       -1.7623966E-18
  -11.10400       -1.7657783E-18
  -10.94250       -1.7674730E-18
  -10.78100       -1.7675857E-18
  -10.61950       -1.7672658E-18
  -10.45800       -1.7678901E-18
  -10.29650       -1.7700594E-18
  -10.13500       -1.7731231E-18
  -9.973500       -1.7756211E-18
  -9.812000       -1.7763569E-18
  -9.650500       -1.7753128E-18
  -9.489000       -1.7737197E-18
  -9.327500       -1.7731977E-18
  -9.166000       -1.7746138E-18
  -9.004500       -1.7774885E-18
  -8.843000       -1.7803824E-18
  -8.681500       -1.7819524E-18
  -8.520000       -1.7818941E-18
  -8.358500       -1.7810998E-18
  -8.197000       -1.7809513E-18
  -8.035500       -1.7823097E-18
  -7.874000       -1.7849383E-18
  -7.712500       -1.7877162E-18
  -7.551000       -1.7894363E-18
  -7.389500       -1.7896098E-18
  -7.228000       -1.7887686E-18
  -7.066500       -1.7881087E-18
  -6.905000       -1.7887247E-18
  -6.743500       -1.7909074E-18
  -6.582000       -1.7939597E-18
  -6.420500       -1.7966514E-18
  -6.259000       -1.7980473E-18
  -6.097500       -1.7981374E-18
  -5.936000       -1.7978367E-18
  -5.774500       -1.7983159E-18
  -5.613000       -1.8001258E-18
  -5.451500       -1.8027496E-18
  -5.290000       -1.8049317E-18
  -5.128500       -1.8055872E-18
  -4.967000       -1.8046097E-18
  -4.805500       -1.8029636E-18
  -4.644000       -1.8019840E-18
  -4.482500       -1.8024261E-18
  -4.321000       -1.8039831E-18
  -4.159500       -1.8056000E-18
  -3.998000       -1.8062856E-18
  -3.836500       -1.8058083E-18
  -3.675000       -1.8048136E-18
  -3.513500       -1.8043409E-18
  -3.352000       -1.8051176E-18
  -3.190500       -1.8070958E-18
  -3.029000       -1.8095047E-18
  -2.867500       -1.8113531E-18
  -2.706000       -1.8120518E-18
  -2.544500       -1.8117888E-18
  -2.383000       -1.8114180E-18
  -2.221500       -1.8119034E-18
  -2.060000       -1.8136384E-18
  -1.898500       -1.8161003E-18
  -1.737000       -1.8181302E-18
  -1.575500       -1.8187270E-18
  -1.414000       -1.8178096E-18
  -1.252500       -1.8163414E-18
  -1.091000       -1.8156672E-18
 -0.9295000       -1.8165422E-18
 -0.7680000       -1.8185915E-18
 -0.6065000       -1.8206208E-18
 -0.4450000       -1.8215406E-18
 -0.2835000       -1.8211974E-18
 -0.1220000       -1.8204978E-18
  3.9500002E-02   -1.8207540E-18
  0.2010000       -1.8227467E-18
  0.3625000       -1.8261972E-18
  0.5240000       -1.8299820E-18
  0.6855000       -1.8328895E-18
  0.8470000       -1.8343785E-18
   1.008500       -1.8348442E-18
   1.170000       -1.8352909E-18
   1.331500       -1.8366311E-18
   1.493000       -1.8390680E-18
   1.654500       -1.8419236E-18
   1.816000       -1.8440528E-18
   1.977500       -1.8446186E-18
   2.139000       -1.8437178E-18
   2.300500       -1.8423959E-18
   2.462000       -1.8419821E-18
   2.623500       -1.8431708E-18
   2.785000       -1.8455132E-18
   2.946500       -1.8477155E-18
   3.108000       -1.8485636E-18
   3.269500       -1.8478135E-18
   3.431000       -1.8463792E-18
   3.592500       -1.8456604E-18
   3.754000       -1.8464971E-18
   3.915500       -1.8485539E-18
   4.077000       -1.8505817E-18
   4.238500       -1.8513491E-18
   4.400000       -1.8505250E-18
   4.561500       -1.8488878E-18
   4.723000       -1.8477482E-18
   4.884500       -1.8480263E-18
   5.046000       -1.8496338E-18
   5.207500       -1.8515640E-18
   5.369000       -1.8526120E-18
   5.530500       -1.8522203E-18
   5.692000       -1.8508700E-18
   5.853500       -1.8497593E-18
   6.015000       -1.8499865E-18
   6.176500       -1.8518030E-18
   6.338000       -1.8544297E-18
   6.499500       -1.8565721E-18
   6.661000       -1.8573092E-18
   6.822500       -1.8567483E-18
   6.984000       -1.8559716E-18
   7.145500       -1.8562620E-18
   7.307000       -1.8581554E-18
   7.468500       -1.8610048E-18
   7.630000       -1.8634111E-18
   7.791500       -1.8642182E-18
   7.953000       -1.8633527E-18
   8.114500       -1.8618961E-18
   8.276000       -1.8613228E-18
   8.437500       -1.8624608E-18
   8.599000       -1.8649130E-18
   8.760500       -1.8673681E-18
   8.922000       -1.8685607E-18
   9.083500       -1.8681825E-18
   9.245000       -1.8670784E-18
   9.406500       -1.8666195E-18
   9.568000       -1.8677256E-18
   9.729500       -1.8702399E-18
   9.891000       -1.8730506E-18
   10.05250       -1.8748549E-18
   10.21400       -1.8750301E-18
   10.37550       -1.8740422E-18
   10.53700       -1.8731280E-18
   10.69850       -1.8734636E-18
   10.86000       -1.8753773E-18
   11.02150       -1.8781212E-18
   11.18300       -1.8803716E-18
   11.34450       -1.8811282E-18
   11.50600       -1.8804187E-18
   11.66750       -1.8793146E-18
   11.82900       -1.8792061E-18
   11.99050       -1.8808083E-18
   12.15200       -1.8836081E-18
   12.31350       -1.8862007E-18
   12.47500       -1.8873118E-18
   12.63650       -1.8867574E-18
   12.79800       -1.8856182E-18
   12.95950       -1.8854645E-18
   13.12100       -1.8872138E-18
   13.28250       -1.8904512E-18
   13.44400       -1.8937206E-18
   13.60550       -1.8955553E-18
   13.76700       -1.8954920E-18
   13.92850       -1.8943451E-18
   14.09000       -1.8935829E-18
   14.25150       -1.8942798E-18
   14.41300       -1.8963914E-18
   14.57450       -1.8988320E-18
   14.73600       -1.9002502E-18
   14.89750       -1.8999749E-18
   15.05900       -1.8985032E-18
   15.22050       -1.8972258E-18
   15.38200       -1.8975354E-18
   15.54350       -1.8998761E-18
   15.70500       -1.9033722E-18
   15.86650       -1.9063523E-18
   16.02800       -1.9074783E-18
   16.18950       -1.9067065E-18
   16.35100       -1.9053582E-18
   16.51250       -1.9051816E-18
   16.67400       -1.9070504E-18
   16.83550       -1.9102562E-18
   16.99700       -1.9129691E-18
   17.15850       -1.9135742E-18
   17.32000       -1.9118884E-18
   17.48150       -1.9093322E-18
   17.64300       -1.9079020E-18
   17.80450       -1.9087176E-18
   17.96600       -1.9112252E-18
   18.12750       -1.9136306E-18
   18.28900       -1.9142053E-18
   18.45050       -1.9125022E-18
   18.61200       -1.9096459E-18
   18.77350       -1.9075300E-18
   18.93500       -1.9075143E-18
   19.09650       -1.9095074E-18
   19.25800       -1.9120578E-18
   19.41950       -1.9133753E-18
   19.58100       -1.9125863E-18
   19.74250       -1.9103790E-18
   19.90400       -1.9085681E-18
   20.06550       -1.9088469E-18
   20.22700       -1.9115586E-18
   20.38850       -1.9153595E-18
   20.55000       -1.9180840E-18
   20.71150       -1.9182695E-18
   20.87300       -1.9162559E-18
   21.03450       -1.9140076E-18
   21.19600       -1.9137233E-18
   21.35750       -1.9162241E-18
   21.51900       -1.9203343E-18
   21.68050       -1.9237510E-18
   21.84200       -1.9247639E-18
   22.00350       -1.9235465E-18
   22.16500       -1.9220360E-18
   22.32650       -1.9224893E-18
   22.48800       -1.9257817E-18
   22.64950       -1.9307264E-18
   22.81100       -1.9349022E-18
   22.97250       -1.9363717E-18
   23.13400       -1.9350234E-18
   23.29550       -1.9325991E-18
   23.45700       -1.9314258E-18
   23.61850       -1.9327755E-18
   23.78000       -1.9359989E-18
   23.94150       -1.9390110E-18
   24.10300       -1.9397778E-18
   24.26450       -1.9377878E-18
   24.42600       -1.9344878E-18
   24.58750       -1.9323427E-18
   24.74900       -1.9331397E-18
   24.91050       -1.9367115E-18
   25.07200       -1.9410045E-18
   25.23350       -1.9435066E-18
   25.39500       -1.9430578E-18
   25.55650       -1.9407376E-18
   25.71800       -1.9391122E-18
   25.87950       -1.9403308E-18
   26.04100       -1.9444576E-18
   26.20250       -1.9493235E-18
   26.36400       -1.9520697E-18
   26.52550       -1.9512556E-18
   26.68700       -1.9479355E-18
   26.84850       -1.9448944E-18
   27.01000       -1.9446117E-18
   27.17150       -1.9474708E-18
   27.33300       -1.9515236E-18
   27.49450       -1.9539481E-18
   27.65600       -1.9530992E-18
   27.81750       -1.9496757E-18
   27.97900       -1.9461951E-18
   28.14050       -1.9451979E-18
   28.30200       -1.9474706E-18
   28.46350       -1.9515128E-18
   28.62500       -1.9545920E-18
   28.78650       -1.9546503E-18
   28.94800       -1.9517659E-18
   29.10950       -1.9481615E-18
   29.27100       -1.9466995E-18
   29.43250       -1.9488607E-18
   29.59400       -1.9536161E-18
   29.75550       -1.9580680E-18
   29.91700       -1.9594891E-18
   30.07850       -1.9573281E-18
   30.24000       -1.9536772E-18
   30.40150       -1.9517941E-18
   30.56300       -1.9536997E-18
   30.72450       -1.9586524E-18
   30.88600       -1.9636666E-18
   31.04750       -1.9657302E-18
   31.20900       -1.9640723E-18
   31.37050       -1.9607553E-18
   31.53200       -1.9591432E-18
   31.69350       -1.9614028E-18
   31.85500       -1.9669135E-18
   32.01650       -1.9727315E-18
   32.17800       -1.9757143E-18
   32.33950       -1.9747188E-18
   32.50100       -1.9713172E-18
   32.66250       -1.9685751E-18
   32.82400       -1.9688117E-18
   32.98550       -1.9719374E-18
   33.14700       -1.9755220E-18
   33.30850       -1.9765472E-18
   33.47000       -1.9736211E-18
   33.63150       -1.9680887E-18
   33.79300       -1.9632311E-18
   33.95450       -1.9620447E-18
   34.11600       -1.9651315E-18
   34.27750       -1.9702280E-18
   34.43900       -1.9737896E-18
   34.60050       -1.9735735E-18
   34.76200       -1.9703372E-18
   34.92350       -1.9673250E-18
   35.08500       -1.9678352E-18
   35.24650       -1.9726597E-18
   35.40800       -1.9793582E-18
   35.56950       -1.9839871E-18
   35.73100       -1.9840088E-18
   35.89250       -1.9802032E-18
   36.05400       -1.9761217E-18
   36.21550       -1.9754810E-18
   36.37700       -1.9794291E-18
   36.53850       -1.9857066E-18
   36.70000       -1.9903057E-18
   36.86150       -1.9903854E-18
   37.02300       -1.9862960E-18
   37.18450       -1.9812895E-18
   37.34600       -1.9791725E-18
   37.50750       -1.9816052E-18
   37.66900       -1.9869534E-18
   37.83050       -1.9914557E-18
   37.99200       -1.9918968E-18
   38.15350       -1.9879228E-18
   38.31500       -1.9823590E-18
   38.47650       -1.9792488E-18
   38.63800       -1.9809567E-18
   38.79950       -1.9863992E-18
   38.96100       -1.9917287E-18
   39.12250       -1.9930656E-18
   39.28400       -1.9893381E-18
   39.44550       -1.9831362E-18
   39.60700       -1.9788873E-18
   39.76850       -1.9796200E-18
   39.93000       -1.9847148E-18
   40.09150       -1.9903682E-18
   40.25300       -1.9924641E-18
   40.41450       -1.9897085E-18
   40.57600       -1.9846344E-18
   40.73750       -1.9817142E-18
   40.89900       -1.9840287E-18
   41.06050       -1.9909797E-18
   41.22200       -1.9987275E-18
   41.38350       -2.0029835E-18
   41.54500       -2.0020784E-18
   41.70650       -1.9980736E-18
   41.86800       -1.9951555E-18
   42.02950       -1.9965237E-18
   42.19100       -2.0020573E-18
   42.35250       -2.0084173E-18
   42.51400       -2.0114795E-18
   42.67550       -2.0093443E-18
   42.83700       -2.0037669E-18
   42.99850       -1.9989909E-18
   43.16000       -1.9987587E-18
   43.32150       -2.0036043E-18
   43.48300       -2.0103957E-18
   43.64450       -2.0145508E-18
   43.80600       -2.0133789E-18
   43.96750       -2.0080982E-18
   44.12900       -2.0029833E-18
   44.29050       -2.0021936E-18
   44.45200       -2.0066188E-18
   44.61350       -2.0131163E-18
   44.77500       -2.0167801E-18
   44.93650       -2.0145922E-18
   45.09800       -2.0077330E-18
   45.25950       -2.0007807E-18
   45.42100       -1.9983662E-18
   45.58250       -2.0017920E-18
   45.74400       -2.0081383E-18
   45.90550       -2.0124920E-18
   46.06700       -2.0115990E-18
   46.22850       -2.0062374E-18
   46.39000       -2.0006242E-18
   46.55150       -1.9993299E-18
   46.71300       -2.0039751E-18
   46.87450       -2.0120594E-18
   47.03600       -2.0187347E-18
   47.19750       -2.0202530E-18
   47.35900       -2.0166148E-18
   47.52050       -2.0115372E-18
   47.68200       -2.0097565E-18
   47.84350       -2.0135834E-18
   48.00500       -2.0211660E-18
   48.16650       -2.0277359E-18
   48.32800       -2.0290103E-18
   48.48950       -2.0243252E-18
   48.65100       -2.0171914E-18
   48.81250       -2.0127869E-18
   48.97400       -2.0141730E-18
   49.13550       -2.0200408E-18
   49.29700       -2.0257045E-18
   49.45850       -2.0266287E-18
   49.62000       -2.0218614E-18
   49.78150       -2.0147957E-18
   49.94300       -2.0106947E-18
   50.10450       -2.0128206E-18
   50.26600       -2.0200512E-18
   50.42750       -2.0277274E-18
   50.58900       -2.0310777E-18
   50.75050       -2.0286464E-18
   50.91200       -2.0232368E-18
   51.07350       -2.0197298E-18
   51.23500       -2.0214584E-18
   51.39650       -2.0277810E-18
   51.55800       -2.0345713E-18
   51.71950       -2.0372269E-18
   51.88100       -2.0340109E-18
   52.04250       -2.0273473E-18
   52.20400       -2.0221218E-18
   52.36550       -2.0221909E-18
   52.52700       -2.0276021E-18
   52.68850       -2.0345475E-18
   52.85000       -2.0381205E-18
   53.01150       -2.0359030E-18
   53.17300       -2.0297594E-18
   53.33450       -2.0244962E-18
   53.49600       -2.0243109E-18
   53.65750       -2.0296409E-18
   53.81900       -2.0367722E-18
   53.98050       -2.0405638E-18
   54.14200       -2.0382872E-18
   54.30350       -2.0317084E-18
   54.46500       -2.0258261E-18
   54.62650       -2.0251923E-18
   54.78800       -2.0305570E-18
   54.94950       -2.0383310E-18
   55.11100       -2.0432312E-18
   55.27250       -2.0421522E-18
   55.43400       -2.0364136E-18
   55.59550       -2.0307588E-18
   55.75700       -2.0298673E-18
   55.91850       -2.0349466E-18
   56.08000       -2.0428733E-18
   56.24150       -2.0484739E-18
   56.40300       -2.0482748E-18
   56.56450       -2.0430013E-18
   56.72600       -2.0370567E-18
   56.88750       -2.0353451E-18
   57.04900       -2.0397145E-18
   57.21050       -2.0475772E-18
   57.37200       -2.0537269E-18
   57.53350       -2.0540828E-18
   57.69500       -2.0486592E-18
   57.85650       -2.0415845E-18
   58.01800       -2.0381188E-18
   58.17950       -2.0408370E-18
   58.34100       -2.0477567E-18
   58.50250       -2.0538067E-18
   58.66400       -2.0545696E-18
   58.82550       -2.0495495E-18
   58.98700       -2.0425389E-18
   59.14850       -2.0388122E-18
   59.31000       -2.0412216E-18
   59.47150       -2.0481009E-18
   59.63300       -2.0545129E-18
   59.79450       -2.0558888E-18
   59.95600       -2.0513492E-18
   60.11750       -2.0442844E-18
   60.27900       -2.0398210E-18
   60.44050       -2.0410764E-18
   60.60200       -2.0469457E-18
   60.76350       -2.0529942E-18
   60.92500       -2.0547648E-18
   61.08650       -2.0510413E-18
   61.24800       -2.0447104E-18
   61.40950       -2.0406287E-18
   61.57100       -2.0420788E-18
   61.73250       -2.0483962E-18
   61.89400       -2.0554650E-18
   62.05550       -2.0587086E-18
   62.21700       -2.0564142E-18
   62.37850       -2.0509677E-18
   62.54000       -2.0471008E-18
   62.70150       -2.0484133E-18
   62.86300       -2.0547185E-18
   63.02450       -2.0621691E-18
   63.18600       -2.0660809E-18
   63.34750       -2.0643779E-18
   63.50900       -2.0591172E-18
   63.67050       -2.0549574E-18
   63.83200       -2.0556842E-18
   63.99350       -2.0613783E-18
   64.15500       -2.0683238E-18
   64.31650       -2.0717444E-18
   64.47800       -2.0693304E-18
   64.63950       -2.0629401E-18
   64.80100       -2.0572309E-18
   64.96250       -2.0562569E-18
   65.12400       -2.0605528E-18
   65.28550       -2.0668197E-18
   65.44700       -2.0704002E-18
   65.60850       -2.0686972E-18
   65.77000       -2.0630439E-18
   65.93150       -2.0576895E-18
   66.09300       -2.0566771E-18
   66.25450       -2.0608996E-18
   66.41600       -2.0674664E-18
   66.57750       -2.0718070E-18
   66.73900       -2.0709709E-18
   66.90050       -2.0657510E-18
   67.06200       -2.0601088E-18
   67.22350       -2.0583200E-18
   67.38500       -2.0619065E-18
   67.54650       -2.0685618E-18
   67.70800       -2.0738613E-18
   67.86950       -2.0744869E-18
   68.03100       -2.0706175E-18
   68.19250       -2.0657399E-18
   68.35400       -2.0640330E-18
   68.51550       -2.0672780E-18
   68.67700       -2.0735561E-18
   68.83850       -2.0786747E-18
   69.00000       -2.0792471E-18
   69.16150       -2.0751346E-18
   69.32300       -2.0694851E-18
   69.48450       -2.0663882E-18
   69.64600       -2.0679224E-18
   69.80750       -2.0727554E-18
   69.96900       -2.0772625E-18
   70.13050       -2.0782596E-18
   70.29200       -2.0753227E-18
   70.45350       -2.0710309E-18
   70.61500       -2.0690238E-18
   70.77650       -2.0713268E-18
   70.93800       -2.0768983E-18
   71.09950       -2.0824189E-18
   71.26100       -2.0847086E-18
   71.42250       -2.0829948E-18
   71.58400       -2.0793943E-18
   71.74550       -2.0772978E-18
   71.90700       -2.0788643E-18
   72.06850       -2.0834579E-18
   72.23000       -2.0881565E-18
   72.39150       -2.0899353E-18
   72.55300       -2.0878988E-18
   72.71450       -2.0839043E-18
   72.87600       -2.0811318E-18
   73.03750       -2.0816784E-18
   73.19900       -2.0849857E-18
   73.36050       -2.0882644E-18
   73.52200       -2.0885810E-18
   73.68350       -2.0850432E-18
   73.84500       -2.0794711E-18
   74.00650       -2.0750793E-18
   74.16800       -2.0741672E-18
   74.32950       -2.0765230E-18
   74.49100       -2.0796981E-18
   74.65250       -2.0809013E-18
   74.81400       -2.0790829E-18
   74.97550       -2.0756766E-18
   75.13700       -2.0734847E-18
   75.29850       -2.0745737E-18
   75.46000       -2.0787357E-18
   75.62150       -2.0836229E-18
   75.78300       -2.0864345E-18
   75.94450       -2.0859049E-18
   76.10600       -2.0831466E-18
   76.26750       -2.0807784E-18
   76.42900       -2.0810127E-18
   76.59050       -2.0841124E-18
   76.75200       -2.0883107E-18
   76.91350       -2.0911860E-18
   77.07500       -2.0914420E-18
   77.23650       -2.0898019E-18
   77.39800       -2.0884036E-18
   77.55950       -2.0891846E-18
   77.72100       -2.0924646E-18
   77.88250       -2.0967347E-18
   78.04400       -2.0997806E-18
   78.20550       -2.1002693E-18
   78.36700       -2.0986451E-18
   78.52850       -2.0967265E-18
   78.69000       -2.0963517E-18
   78.85150       -2.0980944E-18
   79.01300       -2.1009656E-18
   79.17450       -2.1032672E-18
   79.33600       -2.1039120E-18
   79.49750       -2.1032058E-18
   79.65900       -2.1025295E-18
   79.82050       -2.1032153E-18
   79.98200       -2.1055045E-18
   80.14350       -2.1083711E-18
   80.30500       -2.1102988E-18
   80.46650       -2.1103942E-18
   80.62800       -2.1089828E-18
   80.78950       -2.1072939E-18
   80.95100       -2.1065077E-18
   81.11250       -2.1069200E-18
   81.27400       -2.1078365E-18
   81.43550       -2.1082257E-18
   81.59700       -2.1075758E-18
   81.75850       -2.1062895E-18
   81.92000       -2.1053378E-18
   82.08150       -2.1054842E-18
   82.24300       -2.1066756E-18
   82.40450       -2.1080603E-18
   82.56600       -2.1086077E-18
   82.72750       -2.1078520E-18
   82.88900       -2.1062078E-18
   83.05050       -2.1046221E-18
   83.21200       -2.1038417E-18
   83.37350       -2.1038675E-18
   83.53500       -2.1040098E-18
   83.69650       -2.1034874E-18
   83.85800       -2.1020913E-18
   84.01950       -2.1003830E-18
   84.18100       -2.0992736E-18
   84.34250       -2.0993006E-18
   84.50400       -2.1001770E-18
   84.66550       -2.1009815E-18
   84.82700       -2.1008605E-18
   84.98850       -2.0996861E-18
   85.15000       -2.0981453E-18
   85.31150       -2.0971944E-18
   85.47300       -2.0973249E-18
   85.63450       -2.0982299E-18
   85.79600       -2.0991195E-18
   85.95750       -2.0994222E-18
   86.11900       -2.0993015E-18
   86.28050       -2.0995672E-18
   86.44200       -2.1010429E-18
   86.60350       -2.1038942E-18
   86.76500       -2.1074457E-18
   86.92650       -2.1106477E-18
   87.08800       -2.1128195E-18
   87.24950       -2.1140962E-18
   87.41100       -2.1152462E-18
   87.57250       -2.1170166E-18
   87.73400       -2.1195271E-18
   87.89550       -2.1221705E-18
   88.05700       -2.1240908E-18
   88.21850       -2.1248795E-18
   88.38000       -2.1249428E-18
   88.54150       -2.1252319E-18
   88.70300       -2.1265250E-18
   88.86450       -2.1287956E-18
   89.02600       -2.1311630E-18
   89.18750       -2.1324882E-18
   89.34900       -2.1321916E-18
   89.51050       -2.1306870E-18
   89.67200       -2.1290957E-18
   89.83350       -2.1284160E-18
   89.99500       -2.1287607E-18
   90.15650       -2.1292591E-18
   90.31800       -2.1287565E-18
   90.47950       -2.1268133E-18
   90.64100       -2.1242046E-18
   90.80250       -2.1224826E-18
   90.96400       -2.1228635E-18
   91.12550       -2.1252669E-18
   91.28700       -2.1282706E-18
   91.44850       -2.1300558E-18
   91.61000       -2.1296983E-18
   91.77150       -2.1278187E-18
   91.93300       -2.1260996E-18
   92.09450       -2.1259902E-18
   92.25600       -2.1275842E-18
   92.41750       -2.1295209E-18
   92.57900       -2.1299942E-18
   92.74050       -2.1281275E-18
   92.90200       -2.1246899E-18
   93.06350       -2.1216331E-18
   93.22500       -2.1207579E-18
   93.38650       -2.1224499E-18
   93.54800       -2.1253701E-18
   93.70950       -2.1273489E-18
   93.87100       -2.1268784E-18
   94.03250       -2.1241698E-18
   94.19400       -2.1210160E-18
   94.35550       -2.1195353E-18
   94.51700       -2.1206706E-18
   94.67850       -2.1235248E-18
   94.84000       -2.1260316E-18
   95.00150       -2.1265081E-18
   95.16300       -2.1249621E-18
   95.32450       -2.1231613E-18
   95.48600       -2.1233604E-18
   95.64750       -2.1266011E-18
   95.80900       -2.1318651E-18
   95.97050       -2.1367424E-18
   96.13200       -2.1391296E-18
   96.29350       -2.1386897E-18
   96.45500       -2.1370110E-18
   96.61650       -2.1363666E-18
   96.77800       -2.1380352E-18
   96.93950       -2.1414103E-18
   97.10100       -2.1445414E-18
   97.26250       -2.1456592E-18
   97.42400       -2.1445352E-18
   97.58550       -2.1426761E-18
   97.74700       -2.1422077E-18
   97.90850       -2.1442922E-18
   98.07000       -2.1482133E-18
   98.23150       -2.1518016E-18
   98.39300       -2.1529065E-18
   98.55450       -2.1508938E-18
   98.71600       -2.1470966E-18
   98.87750       -2.1438786E-18
   99.03900       -2.1429460E-18
   99.20050       -2.1441183E-18
   99.36200       -2.1454979E-18
   99.52350       -2.1449430E-18
   99.68500       -2.1417855E-18
   99.84650       -2.1374833E-18
   100.0080       -2.1346645E-18
   100.1695       -2.1352139E-18
   100.3310       -2.1388122E-18
   100.4925       -2.1430564E-18
   100.6540       -2.1451229E-18
   100.8155       -2.1437771E-18
   100.9770       -2.1402541E-18
   101.1385       -2.1373421E-18
   101.3000       -2.1373512E-18
   101.4615       -2.1404603E-18
   101.6230       -2.1446409E-18
   101.7845       -2.1471748E-18
   101.9460       -2.1466472E-18
   102.1075       -2.1439705E-18
   102.2690       -2.1417298E-18
   102.4305       -2.1423109E-18
   102.5920       -2.1461575E-18
   102.7535       -2.1513739E-18
   102.9150       -2.1549821E-18
   103.0765       -2.1549594E-18
   103.2380       -2.1516399E-18
   103.3995       -2.1474862E-18
   103.5610       -2.1453802E-18
   103.7225       -2.1466245E-18
   103.8840       -2.1500742E-18
   104.0455       -2.1530347E-18
   104.2070       -2.1532829E-18
   104.3685       -2.1507327E-18
   104.5300       -2.1475176E-18
   104.6915       -2.1464067E-18
   104.8530       -2.1487274E-18
   105.0145       -2.1533532E-18
   105.1760       -2.1574891E-18
   105.3375       -2.1586779E-18
   105.4990       -2.1565306E-18
   105.6605       -2.1529485E-18
   105.8220       -2.1507169E-18
   105.9835       -2.1515336E-18
   106.1450       -2.1548882E-18
   106.3065       -2.1585648E-18
   106.4680       -2.1603377E-18
   106.6295       -2.1596031E-18
   106.7910       -2.1577765E-18
   106.9525       -2.1572049E-18
   107.1140       -2.1594019E-18
   107.2755       -2.1638838E-18
   107.4370       -2.1684414E-18
   107.5985       -2.1706512E-18
   107.7600       -2.1695603E-18
   107.9215       -2.1663352E-18
   108.0830       -2.1634104E-18
   108.2445       -2.1627307E-18
   108.4060       -2.1643836E-18
   108.5675       -2.1666156E-18
   108.7290       -2.1672091E-18
   108.8905       -2.1651872E-18
   109.0520       -2.1615838E-18
   109.2135       -2.1587046E-18
   109.3750       -2.1584345E-18
   109.5365       -2.1608352E-18
   109.6980       -2.1640521E-18
   109.8595       -2.1656184E-18
   110.0210       -2.1642062E-18
   110.1825       -2.1605577E-18
   110.3440       -2.1569396E-18
   110.5055       -2.1555311E-18
   110.6670       -2.1569061E-18
   110.8285       -2.1596826E-18
   110.9900       -2.1615691E-18
   111.1515       -2.1610443E-18
   111.3130       -2.1584666E-18
   111.4745       -2.1558275E-18
   111.6360       -2.1553142E-18
   111.7975       -2.1577145E-18
   111.9590       -2.1618150E-18
   112.1205       -2.1652309E-18
   112.2820       -2.1660539E-18
   112.4435       -2.1641603E-18
   112.6050       -2.1612569E-18
   112.7665       -2.1596708E-18
   112.9280       -2.1607597E-18
   113.0895       -2.1640410E-18
   113.2510       -2.1676175E-18
   113.4125       -2.1695632E-18
   113.5740       -2.1692621E-18
   113.7355       -2.1677815E-18
   113.8970       -2.1670511E-18
   114.0585       -2.1684670E-18
   114.2200       -2.1718946E-18
   114.3815       -2.1757311E-18
   114.5430       -2.1779639E-18
   114.7045       -2.1774975E-18
   114.8660       -2.1748493E-18
   115.0275       -2.1717577E-18
   115.1890       -2.1699973E-18
   115.3505       -2.1702212E-18
   115.5120       -2.1716436E-18
   115.6735       -2.1727386E-18
   115.8350       -2.1724093E-18
   115.9965       -2.1707860E-18
   116.1580       -2.1690983E-18
   116.3195       -2.1687642E-18
   116.4810       -2.1703658E-18
   116.6425       -2.1732371E-18
   116.8040       -2.1759360E-18
   116.9655       -2.1772258E-18
   117.1270       -2.1768627E-18
   117.2885       -2.1756655E-18
   117.4500       -2.1748892E-18
   117.6115       -2.1753653E-18
   117.7730       -2.1769961E-18
   117.9345       -2.1788913E-18
   118.0960       -2.1800262E-18
   118.2575       -2.1799698E-18
   118.4190       -2.1792063E-18
   118.5805       -2.1788039E-18
   118.7420       -2.1796439E-18