  -27.90000        6.1660938E-18
  -27.73850        6.1680629E-18
  -27.57700        6.1709597E-18
  -27.41550        6.1736848E-18
  -27.25400        6.1759728E-18
  -27.09250        6.1783588E-18
  -26.93100        6.1813507E-18
  -26.76950        6.1847351E-18
  -26.60800        6.1877581E-18
  -26.44650        6.1899522E-18
  -26.28500        6.1916702E-18
  -26.12350        6.1937295E-18
  -25.96200        6.1965402E-18
  -25.80050        6.1996525E-18
  -25.63900        6.2022341E-18
  -25.47750        6.2039824E-18
  -25.31600        6.2054763E-18
  -25.15450        6.2075678E-18
  -24.99300        6.2104418E-18
  -24.83150        6.2133779E-18
  -24.67000        6.2154856E-18
  -24.50850        6.2166486E-18
  -24.34700        6.2176743E-18
  -24.18550        6.2194817E-18
  -24.02400        6.2221874E-18
  -23.86250        6.2250279E-18
  -23.70100        6.2271790E-18
  -23.53950        6.2285803E-18
  -23.37800        6.2299199E-18
  -23.21650        6.2318228E-18
  -23.05500        6.2341472E-18
  -22.89350        6.2361572E-18
  -22.73200        6.2373939E-18
  -22.57050        6.2382670E-18
  -22.40900        6.2396926E-18
  -22.24750        6.2421216E-18
  -22.08600        6.2449990E-18
  -21.92450        6.2472630E-18
  -21.76300        6.2483768E-18
  -21.60150        6.2488276E-18
  -21.44000        6.2495882E-18
  -21.27850        6.2511511E-18
  -21.11700        6.2531475E-18
  -20.95550        6.2549189E-18
  -20.79400        6.2563570E-18
  -20.63250        6.2580713E-18
  -20.47100        6.2606902E-18
  -20.30950        6.2640522E-18
  -20.14800        6.2672063E-18
  -19.98650        6.2692697E-18
  -19.82500        6.2702619E-18
  -19.66350        6.2710175E-18
  -19.50200        6.2722542E-18
  -19.34050        6.2737997E-18
  -19.17900        6.2748188E-18
  -19.01750        6.2747977E-18
  -18.85600        6.2742353E-18
  -18.69450        6.2742688E-18
  -18.53300        6.2756059E-18
  -18.37150        6.2778798E-18
  -18.21000        6.2800685E-18
  -18.04850        6.2815302E-18
  -17.88700        6.2825679E-18
  -17.72550        6.2839807E-18
  -17.56400        6.2861421E-18
  -17.40250        6.2886154E-18
  -17.24100        6.2907115E-18
  -17.07950        6.2923546E-18
  -16.91800        6.2942477E-18
  -16.75650        6.2971147E-18
  -16.59500        6.3008242E-18
  -16.43350        6.3043781E-18
  -16.27200        6.3068406E-18
  -16.11050        6.3082506E-18
  -15.94900        6.3095579E-18
  -15.78750        6.3116478E-18
  -15.62600        6.3144685E-18
  -15.46450        6.3171606E-18
  -15.30300        6.3190052E-18
  -15.14150        6.3201715E-18
  -14.98000        6.3214702E-18
  -14.81850        6.3233963E-18
  -14.65700        6.3254865E-18
  -14.49550        6.3266934E-18
  -14.33400        6.3263911E-18
  -14.17250        6.3249551E-18
  -14.01100        6.3233140E-18
  -13.84950        6.3219867E-18
  -13.68800        6.3206500E-18
  -13.52650        6.3186995E-18
  -13.36500        6.3161489E-18
  -13.20350        6.3138630E-18
  -13.04200        6.3128369E-18
  -12.88050        6.3132860E-18
  -12.71900        6.3145206E-18
  -12.55750        6.3157270E-18
  -12.39600        6.3168231E-18
  -12.23450        6.3184803E-18
  -12.07300        6.3213126E-18
  -11.91150        6.3251321E-18
  -11.75000        6.3290877E-18
  -11.58850        6.3325635E-18
  -11.42700        6.3358495E-18
  -11.26550        6.3398183E-18
  -11.10400        6.3449058E-18
  -10.94250        6.3504939E-18
  -10.78100        6.3553949E-18
  -10.61950        6.3589812E-18
  -10.45800        6.3617915E-18
  -10.29650        6.3649629E-18
  -10.13500        6.3690570E-18
  -9.973500        6.3734634E-18
  -9.812000        6.3769678E-18
  -9.650500        6.3788765E-18
  -9.489000        6.3795560E-18
  -9.327500        6.3798960E-18
  -9.166000        6.3803212E-18
  -9.004500        6.3804105E-18
  -8.843000        6.3794845E-18
  -8.681500        6.3774848E-18
  -8.520000        6.3751641E-18
  -8.358500        6.3733968E-18
  -8.197000        6.3723819E-18
  -8.035500        6.3716155E-18
  -7.874000        6.3706283E-18
  -7.712500        6.3696088E-18
  -7.551000        6.3691803E-18
  -7.389500        6.3695612E-18
  -7.228000        6.3701042E-18
  -7.066500        6.3698032E-18
  -6.905000        6.3683192E-18
  -6.743500        6.3664349E-18
  -6.582000        6.3653922E-18
  -6.420500        6.3657558E-18
  -6.259000        6.3669647E-18
  -6.097500        6.3680673E-18
  -5.936000        6.3688647E-18
  -5.774500        6.3702147E-18
  -5.613000        6.3731102E-18
  -5.451500        6.3774587E-18
  -5.290000        6.3818721E-18
  -5.128500        6.3847726E-18
  -4.967000        6.3857504E-18
  -4.805500        6.3858236E-18
  -4.644000        6.3863683E-18
  -4.482500        6.3878258E-18
  -4.321000        6.3894719E-18
  -4.159500        6.3903921E-18
  -3.998000        6.3905828E-18
  -3.836500        6.3910332E-18
  -3.675000        6.3927653E-18
  -3.513500        6.3958850E-18
  -3.352000        6.3996032E-18
  -3.190500        6.4031141E-18
  -3.029000        6.4062984E-18
  -2.867500        6.4095037E-18
  -2.706000        6.4127549E-18
  -2.544500        6.4154056E-18
  -2.383000        6.4167109E-18
  -2.221500        6.4166898E-18
  -2.060000        6.4162266E-18
  -1.898500        6.4161885E-18
  -1.737000        6.4164909E-18
  -1.575500        6.4161857E-18
  -1.414000        6.4145846E-18
  -1.252500        6.4122586E-18
  -1.091000        6.4107900E-18
 -0.9295000        6.4113950E-18
 -0.7680000        6.4137815E-18
 -0.6065000        6.4164040E-18
 -0.4450000        6.4179302E-18
 -0.2835000        6.4184579E-18
 -0.1220000        6.4192756E-18
  3.9500002E-02    6.4214320E-18
  0.2010000        6.4246001E-18
  0.3625000        6.4273803E-18
  0.5240000        6.4287021E-18
  0.6855000        6.4288659E-18
  0.8470000        6.4291989E-18
   1.008500        6.4307606E-18
   1.170000        6.4334324E-18
   1.331500        6.4362328E-18
   1.493000        6.4383731E-18
   1.654500        6.4398782E-18
   1.816000        6.4412041E-18
   1.977500        6.4424342E-18
   2.139000        6.4430496E-18
   2.300500        6.4425487E-18
   2.462000        6.4411558E-18
   2.623500        6.4397342E-18
   2.785000        6.4389352E-18
   2.946500        6.4385489E-18
   3.108000        6.4378487E-18
   3.269500        6.4366141E-18
   3.431000        6.4356653E-18
   3.592500        6.4361935E-18
   3.754000        6.4384856E-18
   3.915500        6.4413956E-18
   4.077000        6.4432307E-18
   4.238500        6.4432539E-18
   4.400000        6.4423192E-18
   4.561500        6.4419755E-18
   4.723000        6.4429185E-18
   4.884500        6.4443462E-18
   5.046000        6.4448470E-18
   5.207500        6.4439181E-18
   5.369000        6.4425698E-18
   5.530500        6.4424288E-18
   5.692000        6.4442705E-18
   5.853500        6.4474444E-18
   6.015000        6.4506758E-18
   6.176500        6.4533190E-18
   6.338000        6.4557782E-18
   6.499500        6.4587813E-18
   6.661000        6.4624143E-18
   6.822500        6.4659550E-18
   6.984000        6.4685937E-18
   7.145500        6.4701464E-18
   7.307000        6.4709818E-18
   7.468500        6.4713470E-18
   7.630000        6.4709930E-18
   7.791500        6.4696170E-18
   7.953000        6.4676189E-18
   8.114500        6.4661850E-18
   8.276000        6.4663877E-18
   8.437500        6.4681487E-18
   8.599000        6.4702010E-18
   8.760500        6.4712548E-18
   8.922000        6.4712556E-18
   9.083500        6.4714248E-18
   9.245000        6.4729691E-18
   9.406500        6.4757236E-18
   9.568000        6.4781254E-18
   9.729500        6.4786018E-18
   9.891000        6.4770409E-18
   10.05250        6.4749138E-18
   10.21400        6.4739588E-18
   10.37550        6.4747161E-18
   10.53700        6.4762894E-18
   10.69850        6.4774280E-18
   10.86000        6.4777664E-18
   11.02150        6.4779822E-18
   11.18300        6.4788864E-18
   11.34450        6.4804969E-18
   11.50600        6.4820859E-18
   11.66750        6.4830413E-18
   11.82900        6.4835248E-18
   11.99050        6.4842175E-18
   12.15200        6.4855212E-18
   12.31350        6.4871515E-18
   12.47500        6.4885809E-18
   12.63650        6.4897762E-18
   12.79800        6.4913230E-18
   12.95950        6.4937433E-18
   13.12100        6.4967659E-18
   13.28250        6.4994253E-18
   13.44400        6.5009791E-18
   13.60550        6.5016744E-18
   13.76700        6.5024722E-18
   13.92850        6.5039313E-18
   14.09000        6.5054198E-18
   14.25150        6.5055820E-18
   14.41300        6.5036914E-18
   14.57450        6.5005432E-18
   14.73600        6.4979128E-18
   14.89750        6.4970314E-18
   15.05900        6.4975575E-18
   15.22050        6.4980439E-18
   15.38200        6.4974338E-18
   15.54350        6.4961078E-18
   15.70500        6.4954932E-18
   15.86650        6.4966662E-18
   16.02800        6.4993355E-18
   16.18950        6.5021401E-18
   16.35100        6.5038507E-18
   16.51250        6.5042700E-18
   16.67400        6.5040434E-18
   16.83550        6.5038006E-18
   16.99700        6.5036352E-18
   17.15850        6.5033895E-18
   17.32000        6.5032439E-18
   17.48150        6.5037708E-18
   17.64300        6.5053466E-18
   17.80450        6.5076408E-18
   17.96600        6.5098767E-18
   18.12750        6.5116799E-18
   18.28900        6.5135630E-18
   18.45050        6.5164110E-18
   18.61200        6.5203963E-18
   18.77350        6.5244868E-18
   18.93500        6.5271805E-18
   19.09650        6.5278509E-18
   19.25800        6.5273529E-18
   19.41950        6.5272198E-18
   19.58100        6.5281942E-18
   19.74250        6.5295528E-18
   19.90400        6.5299139E-18
   20.06550        6.5287103E-18
   20.22700        6.5268182E-18
   20.38850        6.5257106E-18
   20.55000        6.5259939E-18
   20.71150        6.5268244E-18
   20.87300        6.5267545E-18
   21.03450        6.5251324E-18
   21.19600        6.5226430E-18
   21.35750        6.5205254E-18
   21.51900        6.5193479E-18
   21.68050        6.5186109E-18
   21.84200        6.5174950E-18
   22.00350        6.5158729E-18
   22.16500        6.5144948E-18
   22.32650        6.5142206E-18
   22.48800        6.5152116E-18
   22.64950        6.5169726E-18
   22.81100        6.5191051E-18
   22.97250        6.5218059E-18
   23.13400        6.5254806E-18
   23.29550        6.5299118E-18
   23.45700        6.5340481E-18
   23.61850        6.5368213E-18
   23.78000        6.5382163E-18
   23.94150        6.5393946E-18
   24.10300        6.5415933E-18
   24.26450        6.5448399E-18
   24.42600        6.5478393E-18
   24.58750        6.5492418E-18
   24.74900        6.5490702E-18
   24.91050        6.5488336E-18
   25.07200        6.5501306E-18
   25.23350        6.5530919E-18
   25.39500        6.5561959E-18
   25.55650        6.5576368E-18
   25.71800        6.5568920E-18
   25.87950        6.5549886E-18
   26.04100        6.5533301E-18
   26.20250        6.5523553E-18
   26.36400        6.5513643E-18
   26.52550        6.5495309E-18
   26.68700        6.5469240E-18
   26.84850        6.5444727E-18
   27.01000        6.5430317E-18
   27.17150        6.5426351E-18
   27.33300        6.5427327E-18
   27.49450        6.5430235E-18
   27.65600        6.5438358E-18
   27.81750        6.5455699E-18
   27.97900        6.5478794E-18
   28.14050        6.5496512E-18
   28.30200        6.5499800E-18
   28.46350        6.5491454E-18
   28.62500        6.5484485E-18
   28.78650        6.5489581E-18
   28.94800        6.5504123E-18
   29.10950        6.5514897E-18
   29.27100        6.5512398E-18
   29.43250        6.5502216E-18
   29.59400        6.5501260E-18
   29.75550        6.5521795E-18
   29.91700        6.5559089E-18
   30.07850        6.5595245E-18
   30.24000        6.5615478E-18
   30.40150        6.5620834E-18
   30.56300        6.5625036E-18
   30.72450        6.5639520E-18
   30.88600        6.5662267E-18
   31.04750        6.5681363E-18
   31.20900        6.5688389E-18
   31.37050        6.5687037E-18
   31.53200        6.5688385E-18
   31.69350        6.5698969E-18
   31.85500        6.5714801E-18
   32.01650        6.5727201E-18
   32.17800        6.5732842E-18
   32.33950        6.5736424E-18
   32.50100        6.5743165E-18
   32.66250        6.5750515E-18
   32.82400        6.5749448E-18
   32.98550        6.5734670E-18
   33.14700        6.5712307E-18
   33.30850        6.5695487E-18
   33.47000        6.5691355E-18
   33.63150        6.5693402E-18
   33.79300        6.5688418E-18
   33.95450        6.5671697E-18
   34.11600        6.5654520E-18
   34.27750        6.5654942E-18
   34.43900        6.5680217E-18
   34.60050        6.5718635E-18
   34.76200        6.5749373E-18
   34.92350        6.5761123E-18
   35.08500        6.5761144E-18
   35.24650        6.5766194E-18
   35.40800        6.5784983E-18
   35.56950        6.5809799E-18
   35.73100        6.5825048E-18
   35.89250        6.5823121E-18
   36.05400        6.5811329E-18
   36.21550        6.5803723E-18
   36.37700        6.5807512E-18
   36.53850        6.5818319E-18
   36.70000        6.5827943E-18
   36.86150        6.5834275E-18
   37.02300        6.5842071E-18
   37.18450        6.5854400E-18
   37.34600        6.5865981E-18
   37.50750        6.5867375E-18
   37.66900        6.5855993E-18
   37.83050        6.5841182E-18
   37.99200        6.5836293E-18
   38.15350        6.5845161E-18
   38.31500        6.5857494E-18
   38.47650        6.5859182E-18
   38.63800        6.5847609E-18
   38.79950        6.5835706E-18
   38.96100        6.5839648E-18
   39.12250        6.5862184E-18
   39.28400        6.5888753E-18
   39.44550        6.5901062E-18
   39.60700        6.5894453E-18
   39.76850        6.5881714E-18
   39.93000        6.5879667E-18
   40.09150        6.5892567E-18
   40.25300        6.5909081E-18
   40.41450        6.5915140E-18
   40.57600        6.5908614E-18
   40.73750        6.5900776E-18
   40.89900        6.5903767E-18
   41.06050        6.5918151E-18
   41.22200        6.5933438E-18
   41.38350        6.5940249E-18
   41.54500        6.5940241E-18
   41.70650        6.5943033E-18
   41.86800        6.5954316E-18
   42.02950        6.5968932E-18
   42.19100        6.5976856E-18
   42.35250        6.5975148E-18
   42.51400        6.5972005E-18
   42.67550        6.5977882E-18
   42.83700        6.5993495E-18
   42.99850        6.6008715E-18
   43.16000        6.6014319E-18
   43.32150        6.6013947E-18
   43.48300        6.6022322E-18
   43.64450        6.6050182E-18
   43.80600        6.6091313E-18
   43.96750        6.6125989E-18
   44.12900        6.6138508E-18
   44.29050        6.6131423E-18
   44.45200        6.6121824E-18
   44.61350        6.6123317E-18
   44.77500        6.6132238E-18
   44.93650        6.6132106E-18
   45.09800        6.6111666E-18
   45.25950        6.6077578E-18
   45.42100        6.6048904E-18
   45.58250        6.6039503E-18
   45.74400        6.6046451E-18
   45.90550        6.6055600E-18
   46.06700        6.6057188E-18
   46.22850        6.6054516E-18
   46.39000        6.6057601E-18
   46.55150        6.6070187E-18
   46.71300        6.6085316E-18
   46.87450        6.6094113E-18
   47.03600        6.6097149E-18
   47.19750        6.6104722E-18
   47.35900        6.6125104E-18
   47.52050        6.6153836E-18
   47.68200        6.6176773E-18
   47.84350        6.6184466E-18
   48.00500        6.6182365E-18
   48.16650        6.6185099E-18
   48.32800        6.6200236E-18
   48.48950        6.6218856E-18
   48.65100        6.6223832E-18
   48.81250        6.6207805E-18
   48.97400        6.6182047E-18
   49.13550        6.6166487E-18
   49.29700        6.6170735E-18
   49.45850        6.6185579E-18
   49.62000        6.6193677E-18
   49.78150        6.6188023E-18
   49.94300        6.6179069E-18
   50.10450        6.6183258E-18
   50.26600        6.6205452E-18
   50.42750        6.6233642E-18
   50.58900        6.6251137E-18
   50.75050        6.6252853E-18
   50.91200        6.6248602E-18
   51.07350        6.6250620E-18
   51.23500        6.6259504E-18
   51.39650        6.6263747E-18
   51.55800        6.6252948E-18
   51.71950        6.6229754E-18
   51.88100        6.6207652E-18
   52.04250        6.6197412E-18
   52.20400        6.6197428E-18
   52.36550        6.6198305E-18
   52.52700        6.6195885E-18
   52.68850        6.6197536E-18
   52.85000        6.6213872E-18
   53.01150        6.6245099E-18
   53.17300        6.6277536E-18
   53.33450        6.6295598E-18
   53.49600        6.6297029E-18
   53.65750        6.6295035E-18
   53.81900        6.6304325E-18
   53.98050        6.6325447E-18
   54.14200        6.6344236E-18
   54.30350        6.6347284E-18
   54.46500        6.6337073E-18
   54.62650        6.6330633E-18
   54.78800        6.6342573E-18
   54.94950        6.6370015E-18
   55.11100        6.6394951E-18
   55.27250        6.6401510E-18
   55.43400        6.6390413E-18
   55.59550        6.6376335E-18
   55.75700        6.6371984E-18
   55.91850        6.6376054E-18
   56.08000        6.6377117E-18
   56.24150        6.6368005E-18
   56.40300        6.6354415E-18
   56.56450        6.6348364E-18
   56.72600        6.6354410E-18
   56.88750        6.6364345E-18
   57.04900        6.6366285E-18
   57.21050        6.6357967E-18
   57.37200        6.6349071E-18
   57.53350        6.6349977E-18
   57.69500        6.6359477E-18
   57.85650        6.6365457E-18
   58.01800        6.6358426E-18
   58.17950        6.6343161E-18
   58.34100        6.6335352E-18
   58.50250        6.6345965E-18
   58.66400        6.6369771E-18
   58.82550        6.6390649E-18
   58.98700        6.6398574E-18
   59.14850        6.6400422E-18
   59.31000        6.6412938E-18
   59.47150        6.6444846E-18
   59.63300        6.6486772E-18
   59.79450        6.6519611E-18
   59.95600        6.6532631E-18
   60.11750        6.6532449E-18
   60.27900        6.6534000E-18
   60.44050        6.6543636E-18
   60.60200        6.6552206E-18
   60.76350        6.6545229E-18
   60.92500        6.6518908E-18
   61.08650        6.6485192E-18
   61.24800        6.6460869E-18
   61.40950        6.6452510E-18
   61.57100        6.6452878E-18
   61.73250        6.6451567E-18
   61.89400        6.6447228E-18
   62.05550        6.6447907E-18
   62.21700        6.6459880E-18
   62.37850        6.6478289E-18
   62.54000        6.6490986E-18
   62.70150        6.6491483E-18
   62.86300        6.6486548E-18
   63.02450        6.6489187E-18
   63.18600        6.6504267E-18
   63.34750        6.6522489E-18
   63.50900        6.6529942E-18
   63.67050        6.6523565E-18
   63.83200        6.6515769E-18
   63.99350        6.6522477E-18
   64.15500        6.6546354E-18
   64.31650        6.6572799E-18
   64.47800        6.6583568E-18
   64.63950        6.6574527E-18
   64.80100        6.6559539E-18
   64.96250        6.6556689E-18
   65.12400        6.6570983E-18
   65.28550        6.6590926E-18
   65.44700        6.6601551E-18
   65.60850        6.6599512E-18
   65.77000        6.6594880E-18
   65.93150        6.6598842E-18
   66.09300        6.6611477E-18
   66.25450        6.6622516E-18
   66.41600        6.6623360E-18
   66.57750        6.6616565E-18
   66.73900        6.6612280E-18
   66.90050        6.6615961E-18
   67.06200        6.6621437E-18
   67.22350        6.6617454E-18
   67.38500        6.6600608E-18
   67.54650        6.6579999E-18
   67.70800        6.6567902E-18
   67.86950        6.6566446E-18
   68.03100        6.6565205E-18
   68.19250        6.6553021E-18
   68.35400        6.6531493E-18
   68.51550        6.6515326E-18
   68.67700        6.6518320E-18
   68.83850        6.6539517E-18
   69.00000        6.6564006E-18
   69.16150        6.6577935E-18
   69.32300        6.6582071E-18
   69.48450        6.6589718E-18
   69.64600        6.6611349E-18
   69.80750        6.6642120E-18
   69.96900        6.6665790E-18
   70.13050        6.6671105E-18
   70.29200        6.6663474E-18
   70.45350        6.6659706E-18
   70.61500        6.6671324E-18
   70.77650        6.6693889E-18
   70.93800        6.6712910E-18
   71.09950        6.6719201E-18
   71.26100        6.6717245E-18
   71.42250        6.6718461E-18
   71.58400        6.6727738E-18
   71.74550        6.6738226E-18
   71.90700        6.6739728E-18
   72.06850        6.6730666E-18
   72.23000        6.6719904E-18
   72.39150        6.6716178E-18
   72.55300        6.6717224E-18
   72.71450        6.6711393E-18
   72.87600        6.6690825E-18
   73.03750        6.6661849E-18
   73.19900        6.6640301E-18
   73.36050        6.6635904E-18
   73.52200        6.6642104E-18
   73.68350        6.6642745E-18
   73.84500        6.6629220E-18
   74.00650        6.6610270E-18
   74.16800        6.6603801E-18
   74.32950        6.6618897E-18
   74.49100        6.6646351E-18
   74.65250        6.6667296E-18
   74.81400        6.6671055E-18
   74.97550        6.6663987E-18
   75.13700        6.6660964E-18
   75.29850        6.6669293E-18
   75.46000        6.6682086E-18
   75.62150        6.6687487E-18
   75.78300        6.6682776E-18
   75.94450        6.6677747E-18
   76.10600        6.6683980E-18
   76.26750        6.6702165E-18
   76.42900        6.6721608E-18
   76.59050        6.6731944E-18
   76.75200        6.6733975E-18
   76.91350        6.6737527E-18
   77.07500        6.6749054E-18
   77.23650        6.6763207E-18
   77.39800        6.6768162E-18
   77.55950        6.6759303E-18
   77.72100        6.6745878E-18
   77.88250        6.6742594E-18
   78.04400        6.6754514E-18
   78.20550        6.6771467E-18
   78.36700        6.6778605E-18
   78.52850        6.6772265E-18
   78.69000        6.6764212E-18
   78.85150        6.6769130E-18
   79.01300        6.6788391E-18
   79.17450        6.6807213E-18
   79.33600        6.6808557E-18
   79.49750        6.6789640E-18
   79.65900        6.6764299E-18
   79.82050        6.6749067E-18
   79.98200        6.6747656E-18
   80.14350        6.6749302E-18
   80.30500        6.6741887E-18
   80.46650        6.6725322E-18
   80.62800        6.6711525E-18
   80.78950        6.6711790E-18
   80.95100        6.6725690E-18
   81.11250        6.6742995E-18
   81.27400        6.6755299E-18
   81.43550        6.6763877E-18
   81.59700        6.6775243E-18
   81.75850        6.6790322E-18
   81.92000        6.6800666E-18
   82.08150        6.6796762E-18
   82.24300        6.6779370E-18
   82.40450        6.6760693E-18
   82.56600        6.6752859E-18
   82.72750        6.6755721E-18
   82.88900        6.6757343E-18
   83.05050        6.6747483E-18
   83.21200        6.6730083E-18
   83.37350        6.6720893E-18
   83.53500        6.6731778E-18
   83.69650        6.6757529E-18
   83.85800        6.6779068E-18
   84.01950        6.6780611E-18
   84.18100        6.6763803E-18
   84.34250        6.6744893E-18
   84.50400        6.6738321E-18
   84.66550        6.6743508E-18
   84.82700        6.6747739E-18
   84.98850        6.6740948E-18
   85.15000        6.6726584E-18
   85.31150        6.6717762E-18
   85.47300        6.6723643E-18
   85.63450        6.6740948E-18
   85.79600        6.6758596E-18
   85.95750        6.6769428E-18
   86.11900        6.6775797E-18
   86.28050        6.6783709E-18
   86.44200        6.6793329E-18
   86.60350        6.6797543E-18
   86.76500        6.6790657E-18
   86.92650        6.6777158E-18
   87.08800        6.6769676E-18
   87.24950        6.6777038E-18
   87.41100        6.6795219E-18
   87.57250        6.6811486E-18
   87.73400        6.6818182E-18
   87.89550        6.6821515E-18
   88.05700        6.6835441E-18
   88.21850        6.6866216E-18
   88.38000        6.6903646E-18
   88.54150        6.6928710E-18
   88.70300        6.6930442E-18
   88.86450        6.6915458E-18
   89.02600        6.6900573E-18
   89.18750        6.6896321E-18
   89.34900        6.6898021E-18
   89.51050        6.6892855E-18
   89.67200        6.6874984E-18
   89.83350        6.6852617E-18
   89.99500        6.6840061E-18
   90.15650        6.6843601E-18
   90.31800        6.6856129E-18
   90.47950        6.6865207E-18
   90.64100        6.6865261E-18
   90.80250        6.6860740E-18
   90.96400        6.6857957E-18
   91.12550        6.6855860E-18
   91.28700        6.6846587E-18
   91.44850        6.6825043E-18
   91.61000        6.6796377E-18
   91.77150        6.6772199E-18
   91.93300        6.6759142E-18
   92.09450        6.6752400E-18
   92.25600        6.6741936E-18
   92.41750        6.6725136E-18
   92.57900        6.6711951E-18
   92.74050        6.6715868E-18
   92.90200        6.6739475E-18
   93.06350        6.6769945E-18
   93.22500        6.6790041E-18
   93.38650        6.6793937E-18
   93.54800        6.6791943E-18
   93.70950        6.6799347E-18
   93.87100        6.6820957E-18
   94.03250        6.6847025E-18
   94.19400        6.6864160E-18
   94.35550        6.6869430E-18
   94.51700        6.6873061E-18
   94.67850        6.6887313E-18
   94.84000        6.6913642E-18
   95.00150        6.6941436E-18
   95.16300        6.6958947E-18
   95.32450        6.6964225E-18
   95.48600        6.6964593E-18
   95.64750        6.6966206E-18
   95.80900        6.6966094E-18
   95.97050        6.6955812E-18
   96.13200        6.6932386E-18
   96.29350        6.6903844E-18
   96.45500        6.6882582E-18
   96.61650        6.6873441E-18
   96.77800        6.6869545E-18
   96.93950        6.6860620E-18
   97.10100        6.6844900E-18
   97.26250        6.6831520E-18
   97.42400        6.6830292E-18
   97.58550        6.6839676E-18
   97.74700        6.6846186E-18
   97.90850        6.6836773E-18
   98.07000        6.6811767E-18
   98.23150        6.6784850E-18
   98.39300        6.6769854E-18
   98.55450        6.6767885E-18
   98.71600        6.6767897E-18
   98.87750        6.6759799E-18
   99.03900        6.6745989E-18
   99.20050        6.6739500E-18
   99.36200        6.6751093E-18
   99.52350        6.6779048E-18
   99.68500        6.6811804E-18
   99.84650        6.6839990E-18
   100.0080        6.6864607E-18
   100.1695        6.6893128E-18
   100.3310        6.6928507E-18
   100.4925        6.6963666E-18
   100.6540        6.6987667E-18
   100.8155        6.6996749E-18
   100.9770        6.6997837E-18
   101.1385        6.7000484E-18
   101.3000        6.7006072E-18
   101.4615        6.7006415E-18
   101.6230        6.6993482E-18
   101.7845        6.6969585E-18
   101.9460        6.6946506E-18
   102.1075        6.6934086E-18
   102.2690        6.6930149E-18
   102.4305        6.6922766E-18
   102.5920        6.6902790E-18
   102.7535        6.6873648E-18
   102.9150        6.6848146E-18
   103.0765        6.6835474E-18
   103.2380        6.6832256E-18
   103.3995        6.6826913E-18
   103.5610        6.6812946E-18
   103.7225        6.6796749E-18
   103.8840        6.6791493E-18
   104.0455        6.6803367E-18
   104.2070        6.6824601E-18
   104.3685        6.6840553E-18
   104.5300        6.6843580E-18
   104.6915        6.6839279E-18
   104.8530        6.6839312E-18
   105.0145        6.6848878E-18
   105.1760        6.6862117E-18
   105.3375        6.6869698E-18
   105.4990        6.6869694E-18
   105.6605        6.6869959E-18
   105.8220        6.6879620E-18
   105.9835        6.6899105E-18
   106.1450        6.6919900E-18
   106.3065        6.6934053E-18
   106.4680        6.6942772E-18
   106.6295        6.6954249E-18
   106.7910        6.6973146E-18
   106.9525        6.6993556E-18
   107.1140        6.7003880E-18
   107.2755        6.6998784E-18
   107.4370        6.6985181E-18
   107.5985        6.6975272E-18
   107.7600        6.6973530E-18
   107.9215        6.6971446E-18
   108.0830        6.6956118E-18
   108.2445        6.6924115E-18
   108.4060        6.6886122E-18
   108.5675        6.6857287E-18
   108.7290        6.6842960E-18
   108.8905        6.6834647E-18
   109.0520        6.6820415E-18
   109.2135        6.6798611E-18
   109.3750        6.6780442E-18
   109.5365        6.6778589E-18
   109.6980        6.6793772E-18
   109.8595        6.6813463E-18
   110.0210        6.6823869E-18
   110.1825        6.6822731E-18
   110.3440        6.6820022E-18
   110.5055        6.6826606E-18
   110.6670        6.6843262E-18
   110.8285        6.6861303E-18
   110.9900        6.6873082E-18
   111.1515        6.6880270E-18
   111.3130        6.6890907E-18
   111.4745        6.6909283E-18
   111.6360        6.6930484E-18
   111.7975        6.6946209E-18
   111.9590        6.6954968E-18
   112.1205        6.6964679E-18
   112.2820        6.6983672E-18
   112.4435        6.7009844E-18
   112.6050        6.7030498E-18
   112.7665        6.7034386E-18
   112.9280        6.7023525E-18
   113.0895        6.7011820E-18
   113.2510        6.7010948E-18
   113.4125        6.7017590E-18
   113.5740        6.7015779E-18
   113.7355        6.6992460E-18
   113.8970        6.6950808E-18
   114.0585        6.6907815E-18
   114.2200        6.6878731E-18
   114.3815        6.6864082E-18
   114.5430        6.6852055E-18
   114.7045        6.6832798E-18
   114.8660        6.6809223E-18
   115.0275        6.6793379E-18
   115.1890        6.6793197E-18
   115.3505        6.6804372E-18
   115.5120        6.6815692E-18
   115.6735        6.6821457E-18
   115.8350        6.6826975E-18
   115.9965        6.6841578E-18
   116.1580        6.6867312E-18
   116.3195        6.6896189E-18
   116.4810        6.6918816E-18
   116.6425        6.6934442E-18
   116.8040        6.6950708E-18
   116.9655        6.6973133E-18
   117.1270        6.6996373E-18
   117.2885        6.7007784E-18
   117.4500        6.7000352E-18
   117.6115        6.6981248E-18
   117.7730        6.6965858E-18
   117.9345        6.6962789E-18
   118.0960        6.6965378E-18
   118.2575        6.6959071E-18
   118.4190        6.6937416E-18
   118.5805        6.6909995E-18
   118.7420        6.6893865E-18