  -27.90000        5.9829089E-18
  -27.73850        5.9846174E-18
  -27.57700        5.9871027E-18
  -27.41550        5.9893824E-18
  -27.25400        5.9912220E-18
  -27.09250        5.9931154E-18
  -26.93100        5.9955449E-18
  -26.76950        5.9983589E-18
  -26.60800        6.0009153E-18
  -26.44650        6.0027844E-18
  -26.28500        6.0042237E-18
  -26.12350        6.0058962E-18
  -25.96200        6.0081519E-18
  -25.80050        6.0106480E-18
  -25.63900        6.0127399E-18
  -25.47750        6.0142094E-18
  -25.31600        6.0155238E-18
  -25.15450        6.0173200E-18
  -24.99300        6.0196721E-18
  -24.83150        6.0219683E-18
  -24.67000        6.0235598E-18
  -24.50850        6.0244755E-18
  -24.34700        6.0254326E-18
  -24.18550        6.0270985E-18
  -24.02400        6.0294059E-18
  -23.86250        6.0316368E-18
  -23.70100        6.0331770E-18
  -23.53950        6.0341498E-18
  -23.37800        6.0352533E-18
  -23.21650        6.0369817E-18
  -23.05500        6.0390711E-18
  -22.89350        6.0407805E-18
  -22.73200        6.0417189E-18
  -22.57050        6.0423339E-18
  -22.40900        6.0434941E-18
  -22.24750        6.0455868E-18
  -22.08600        6.0480766E-18
  -21.92450        6.0500131E-18
  -21.76300        6.0509519E-18
  -21.60150        6.0513535E-18
  -21.44000        6.0520851E-18
  -21.27850        6.0535811E-18
  -21.11700        6.0555320E-18
  -20.95550        6.0573518E-18
  -20.79400        6.0588631E-18
  -20.63250        6.0604339E-18
  -20.47100        6.0624514E-18
  -20.30950        6.0647580E-18
  -20.14800        6.0667076E-18
  -19.98650        6.0678194E-18
  -19.82500        6.0683086E-18
  -19.66350        6.0688753E-18
  -19.50200        6.0699551E-18
  -19.34050        6.0712642E-18
  -19.17900        6.0721666E-18
  -19.01750        6.0724888E-18
  -18.85600        6.0728722E-18
  -18.69450        6.0742259E-18
  -18.53300        6.0768195E-18
  -18.37150        6.0799421E-18
  -18.21000        6.0825097E-18
  -18.04850        6.0840214E-18
  -17.88700        6.0849184E-18
  -17.72550        6.0860091E-18
  -17.56400        6.0875782E-18
  -17.40250        6.0891073E-18
  -17.24100        6.0898741E-18
  -17.07950        6.0897740E-18
  -16.91800        6.0894799E-18
  -16.75650        6.0897727E-18
  -16.59500        6.0907649E-18
  -16.43350        6.0918510E-18
  -16.27200        6.0923895E-18
  -16.11050        6.0923813E-18
  -15.94900        6.0924218E-18
  -15.78750        6.0930488E-18
  -15.62600        6.0942192E-18
  -15.46450        6.0954596E-18
  -15.30300        6.0964733E-18
  -15.14150        6.0974924E-18
  -14.98000        6.0989797E-18
  -14.81850        6.1010331E-18
  -14.65700        6.1031975E-18
  -14.49550        6.1049573E-18
  -14.33400        6.1063858E-18
  -14.17250        6.1081941E-18
  -14.01100        6.1110338E-18
  -13.84950        6.1147561E-18
  -13.68800        6.1184370E-18
  -13.52650        6.1212093E-18
  -13.36500        6.1230622E-18
  -13.20350        6.1247774E-18
  -13.04200        6.1270662E-18
  -12.88050        6.1297814E-18
  -12.71900        6.1320094E-18
  -12.55750        6.1329383E-18
  -12.39600        6.1326327E-18
  -12.23450        6.1319581E-18
  -12.07300        6.1317761E-18
  -11.91150        6.1322323E-18
  -11.75000        6.1328172E-18
  -11.58850        6.1330430E-18
  -11.42700        6.1329549E-18
  -11.26550        6.1329445E-18
  -11.10400        6.1331497E-18
  -10.94250        6.1331914E-18
  -10.78100        6.1325640E-18
  -10.61950        6.1312472E-18
  -10.45800        6.1298207E-18
  -10.29650        6.1289364E-18
  -10.13500        6.1287189E-18
  -9.973500        6.1287507E-18
  -9.812000        6.1286391E-18
  -9.650500        6.1285398E-18
  -9.489000        6.1290270E-18
  -9.327500        6.1304220E-18
  -9.166000        6.1323122E-18
  -9.004500        6.1338296E-18
  -8.843000        6.1344736E-18
  -8.681500        6.1346225E-18
  -8.520000        6.1351721E-18
  -8.358500        6.1366259E-18
  -8.197000        6.1385814E-18
  -8.035500        6.1401621E-18
  -7.874000        6.1409607E-18
  -7.712500        6.1415195E-18
  -7.551000        6.1428670E-18
  -7.389500        6.1455764E-18
  -7.228000        6.1492685E-18
  -7.066500        6.1529991E-18
  -6.905000        6.1560899E-18
  -6.743500        6.1585904E-18
  -6.582000        6.1609913E-18
  -6.420500        6.1635812E-18
  -6.259000        6.1661513E-18
  -6.097500        6.1682941E-18
  -5.936000        6.1698810E-18
  -5.774500        6.1711255E-18
  -5.613000        6.1721992E-18
  -5.451500        6.1729280E-18
  -5.290000        6.1730086E-18
  -5.128500        6.1725417E-18
  -4.967000        6.1722207E-18
  -4.805500        6.1728403E-18
  -4.644000        6.1745430E-18
  -4.482500        6.1765829E-18
  -4.321000        6.1779217E-18
  -4.159500        6.1781367E-18
  -3.998000        6.1777835E-18
  -3.836500        6.1778480E-18
  -3.675000        6.1788067E-18
  -3.513500        6.1802134E-18
  -3.352000        6.1812076E-18
  -3.190500        6.1814099E-18
  -3.029000        6.1812994E-18
  -2.867500        6.1817072E-18
  -2.706000        6.1829869E-18
  -2.544500        6.1847062E-18
  -2.383000        6.1861161E-18
  -2.221500        6.1868564E-18
  -2.060000        6.1871617E-18
  -1.898500        6.1874512E-18
  -1.737000        6.1877990E-18
  -1.575500        6.1878784E-18
  -1.414000        6.1873858E-18
  -1.252500        6.1864478E-18
  -1.091000        6.1855520E-18
 -0.9295000        6.1850826E-18
 -0.7680000        6.1849903E-18
 -0.6065000        6.1849647E-18
 -0.4450000        6.1848969E-18
 -0.2835000        6.1850594E-18
 -0.1220000        6.1857580E-18
  3.9500002E-02    6.1868411E-18
  0.2010000        6.1876981E-18
  0.3625000        6.1878367E-18
  0.5240000        6.1874731E-18
  0.6855000        6.1874557E-18
  0.8470000        6.1885228E-18
   1.008500        6.1905912E-18
   1.170000        6.1927985E-18
   1.331500        6.1942986E-18
   1.493000        6.1950848E-18
   1.654500        6.1960382E-18
   1.816000        6.1981433E-18
   1.977500        6.2015877E-18
   2.139000        6.2055838E-18
   2.300500        6.2090336E-18
   2.462000        6.2113687E-18
   2.623500        6.2127948E-18
   2.785000        6.2138383E-18
   2.946500        6.2147680E-18
   3.108000        6.2154653E-18
   3.269500        6.2157523E-18
   3.431000        6.2156969E-18
   3.592500        6.2155472E-18
   3.754000        6.2154359E-18
   3.915500        6.2152684E-18
   4.077000        6.2149752E-18
   4.238500        6.2148271E-18
   4.400000        6.2153772E-18
   4.561500        6.2169580E-18
   4.723000        6.2192207E-18
   4.884500        6.2212597E-18
   5.046000        6.2223218E-18
   5.207500        6.2224624E-18
   5.369000        6.2224657E-18
   5.530500        6.2230688E-18
   5.692000        6.2242392E-18
   5.853500        6.2252331E-18
   6.015000        6.2253629E-18
   6.176500        6.2247020E-18
   6.338000        6.2240270E-18
   6.499500        6.2240750E-18
   6.661000        6.2248613E-18
   6.822500        6.2257277E-18
   6.984000        6.2260450E-18
   7.145500        6.2258572E-18
   7.307000        6.2258245E-18
   7.468500        6.2265661E-18
   7.630000        6.2280873E-18
   7.791500        6.2298665E-18
   7.953000        6.2314452E-18
   8.114500        6.2328427E-18
   8.276000        6.2343896E-18
   8.437500        6.2362408E-18
   8.599000        6.2381669E-18
   8.760500        6.2398452E-18
   8.922000        6.2412556E-18
   9.083500        6.2426589E-18
   9.245000        6.2441552E-18
   9.406500        6.2453451E-18
   9.568000        6.2455693E-18
   9.729500        6.2445870E-18
   9.891000        6.2429955E-18
   10.05250        6.2418635E-18
   10.21400        6.2418143E-18
   10.37550        6.2424455E-18
   10.53700        6.2427172E-18
   10.69850        6.2419918E-18
   10.86000        6.2407187E-18
   11.02150        6.2400657E-18
   11.18300        6.2408436E-18
   11.34450        6.2427705E-18
   11.50600        6.2447508E-18
   11.66750        6.2458435E-18
   11.82900        6.2459775E-18
   11.99050        6.2458080E-18
   12.15200        6.2459990E-18
   12.31350        6.2466864E-18
   12.47500        6.2475914E-18
   12.63650        6.2485062E-18
   12.79800        6.2495460E-18
   12.95950        6.2508959E-18
   13.12100        6.2524515E-18
   13.28250        6.2538519E-18
   13.44400        6.2549260E-18
   13.60550        6.2559856E-18
   13.76700        6.2575237E-18
   13.92850        6.2595805E-18
   14.09000        6.2614979E-18
   14.25150        6.2624624E-18
   14.41300        6.2623416E-18
   14.57450        6.2619425E-18
   14.73600        6.2623421E-18
   14.89750        6.2638740E-18
   15.05900        6.2657782E-18
   15.22050        6.2668858E-18
   15.38200        6.2667278E-18
   15.54350        6.2659883E-18
   15.70500        6.2658650E-18
   15.86650        6.2669557E-18
   16.02800        6.2687564E-18
   16.18950        6.2702272E-18
   16.35100        6.2708070E-18
   16.51250        6.2708674E-18
   16.67400        6.2712347E-18
   16.83550        6.2723584E-18
   16.99700        6.2739693E-18
   17.15850        6.2754644E-18
   17.32000        6.2764786E-18
   17.48150        6.2770535E-18
   17.64300        6.2773306E-18
   17.80450        6.2772516E-18
   17.96600        6.2766527E-18
   18.12750        6.2756154E-18
   18.28900        6.2745657E-18
   18.45050        6.2738800E-18
   18.61200        6.2734044E-18
   18.77350        6.2725031E-18
   18.93500        6.2707516E-18
   19.09650        6.2686129E-18
   19.25800        6.2673035E-18
   19.41950        6.2678349E-18
   19.58100        6.2701010E-18
   19.74250        6.2729444E-18
   19.90400        6.2751898E-18
   20.06550        6.2766804E-18
   20.22700        6.2783190E-18
   20.38850        6.2810835E-18
   20.55000        6.2849667E-18
   20.71150        6.2888536E-18
   20.87300        6.2914456E-18
   21.03450        6.2923443E-18
   21.19600        6.2923025E-18
   21.35750        6.2924568E-18
   21.51900        6.2933622E-18
   21.68050        6.2947067E-18
   21.84200        6.2958441E-18
   22.00350        6.2964579E-18
   22.16500        6.2966990E-18
   22.32650        6.2968132E-18
   22.48800        6.2968280E-18
   22.64950        6.2966519E-18
   22.81100        6.2963809E-18
   22.97250        6.2963243E-18
   23.13400        6.2966308E-18
   23.29550        6.2969637E-18
   23.45700        6.2967011E-18
   23.61850        6.2955885E-18
   23.78000        6.2941823E-18
   23.94150        6.2935003E-18
   24.10300        6.2940731E-18
   24.26450        6.2953085E-18
   24.42600        6.2959053E-18
   24.58750        6.2950297E-18
   24.74900        6.2931496E-18
   24.91050        6.2916693E-18
   25.07200        6.2916817E-18
   25.23350        6.2930230E-18
   25.39500        6.2945140E-18
   25.55650        6.2951092E-18
   25.71800        6.2948254E-18
   25.87950        6.2946104E-18
   26.04100        6.2953652E-18
   26.20250        6.2971304E-18
   26.36400        6.2991839E-18
   26.52550        6.3008423E-18
   26.68700        6.3020769E-18
   26.84850        6.3033454E-18
   27.01000        6.3049493E-18
   27.17150        6.3066872E-18
   27.33300        6.3081662E-18
   27.49450        6.3093015E-18
   27.65600        6.3103636E-18
   27.81750        6.3115072E-18
   27.97900        6.3124150E-18
   28.14050        6.3125833E-18
   28.30200        6.3119994E-18
   28.46350        6.3114191E-18
   28.62500        6.3118000E-18
   28.78650        6.3133597E-18
   28.94800        6.3152316E-18
   29.10950        6.3161692E-18
   29.27100        6.3156952E-18
   29.43250        6.3145545E-18
   29.59400        6.3139631E-18
   29.75550        6.3143701E-18
   29.91700        6.3149764E-18
   30.07850        6.3145185E-18
   30.24000        6.3125498E-18
   30.40150        6.3099389E-18
   30.56300        6.3081385E-18
   30.72450        6.3079793E-18
   30.88600        6.3091534E-18
   31.04750        6.3107561E-18
   31.20900        6.3121954E-18
   31.37050        6.3135578E-18
   31.53200        6.3151873E-18
   31.69350        6.3171204E-18
   31.85500        6.3190387E-18
   32.01650        6.3207402E-18
   32.17800        6.3224603E-18
   32.33950        6.3245692E-18
   32.50100        6.3269581E-18
   32.66250        6.3288933E-18
   32.82400        6.3296576E-18
   32.98550        6.3293751E-18
   33.14700        6.3290529E-18
   33.30850        6.3296791E-18
   33.47000        6.3312152E-18
   33.63150        6.3325519E-18
   33.79300        6.3325366E-18
   33.95450        6.3310936E-18
   34.11600        6.3293271E-18
   34.27750        6.3284979E-18
   34.43900        6.3288817E-18
   34.60050        6.3295997E-18
   34.76200        6.3295497E-18
   34.92350        6.3284780E-18
   35.08500        6.3271392E-18
   35.24650        6.3264796E-18
   35.40800        6.3267463E-18
   35.56950        6.3274263E-18
   35.73100        6.3279532E-18
   35.89250        6.3283242E-18
   36.05400        6.3289512E-18
   36.21550        6.3300145E-18
   36.37700        6.3311229E-18
   36.53850        6.3316962E-18
   36.70000        6.3316172E-18
   36.86150        6.3313773E-18
   37.02300        6.3315295E-18
   37.18450        6.3320614E-18
   37.34600        6.3324208E-18
   37.50750        6.3322392E-18
   37.66900        6.3319539E-18
   37.83050        6.3325734E-18
   37.99200        6.3347067E-18
   38.15350        6.3378239E-18
   38.31500        6.3405913E-18
   38.47650        6.3420248E-18
   38.63800        6.3423432E-18
   38.79950        6.3426638E-18
   38.96100        6.3438471E-18
   39.12250        6.3456582E-18
   39.28400        6.3470499E-18
   39.44550        6.3472385E-18
   39.60700        6.3464878E-18
   39.76850        6.3458650E-18
   39.93000        6.3462711E-18
   40.09150        6.3477158E-18
   40.25300        6.3494686E-18
   40.41450        6.3508094E-18
   40.57600        6.3515713E-18
   40.73750        6.3520093E-18
   40.89900        6.3523137E-18
   41.06050        6.3524208E-18
   41.22200        6.3522946E-18
   41.38350        6.3522185E-18
   41.54500        6.3525995E-18
   41.70650        6.3534246E-18
   41.86800        6.3540503E-18
   42.02950        6.3537128E-18
   42.19100        6.3523422E-18
   42.35250        6.3508189E-18
   42.51400        6.3502838E-18
   42.67550        6.3510766E-18
   42.83700        6.3523364E-18
   42.99850        6.3527227E-18
   43.16000        6.3516457E-18
   43.32150        6.3498449E-18
   43.48300        6.3487394E-18
   43.64450        6.3491576E-18
   43.80600        6.3506452E-18
   43.96750        6.3519803E-18
   44.12900        6.3523352E-18
   44.29050        6.3519551E-18
   44.45200        6.3517892E-18
   44.61350        6.3525618E-18
   44.77500        6.3542199E-18
   44.93650        6.3561820E-18
   45.09800        6.3579633E-18
   45.25950        6.3594779E-18
   45.42100        6.3608043E-18
   45.58250        6.3618258E-18
   45.74400        6.3622551E-18
   45.90550        6.3620227E-18
   46.06700        6.3615301E-18
   46.22850        6.3613618E-18
   46.39000        6.3617022E-18
   46.55150        6.3621265E-18
   46.71300        6.3620901E-18
   46.87450        6.3616496E-18
   47.03600        6.3615864E-18
   47.19750        6.3626890E-18
   47.35900        6.3648785E-18
   47.52050        6.3671053E-18
   47.68200        6.3682050E-18
   47.84350        6.3679255E-18
   48.00500        6.3671161E-18
   48.16650        6.3668882E-18
   48.32800        6.3675441E-18
   48.48950        6.3683208E-18
   48.65100        6.3681873E-18
   48.81250        6.3669097E-18
   48.97400        6.3653116E-18
   49.13550        6.3644976E-18
   49.29700        6.3648463E-18
   49.45850        6.3657553E-18
   49.62000        6.3663273E-18
   49.78150        6.3662103E-18
   49.94300        6.3657611E-18
   50.10450        6.3655076E-18
   50.26600        6.3655903E-18
   50.42750        6.3657706E-18
   50.58900        6.3658798E-18
   50.75050        6.3660846E-18
   50.91200        6.3666243E-18
   51.07350        6.3673510E-18
   51.23500        6.3677133E-18
   51.39650        6.3673444E-18
   51.55800        6.3666690E-18
   51.71950        6.3667538E-18
   51.88100        6.3683705E-18
   52.04250        6.3711440E-18
   52.20400        6.3737290E-18
   52.36550        6.3749639E-18
   52.52700        6.3749164E-18
   52.68850        6.3747915E-18
   52.85000        6.3757717E-18
   53.01150        6.3779207E-18
   53.17300        6.3801805E-18
   53.33450        6.3814155E-18
   53.49600        6.3814416E-18
   53.65750        6.3810909E-18
   53.81900        6.3813357E-18
   53.98050        6.3824197E-18
   54.14200        6.3838160E-18
   54.30350        6.3849157E-18
   54.46500        6.3856073E-18
   54.62650        6.3861342E-18
   54.78800        6.3865263E-18
   54.94950        6.3863894E-18
   55.11100        6.3853686E-18
   55.27250        6.3837370E-18
   55.43400        6.3823267E-18
   55.59550        6.3817828E-18
   55.75700        6.3819089E-18
   55.91850        6.3818630E-18
   56.08000        6.3810582E-18
   56.24150        6.3798311E-18
   56.40300        6.3791503E-18
   56.56450        6.3796164E-18
   56.72600        6.3807840E-18
   56.88750        6.3815413E-18
   57.04900        6.3812100E-18
   57.21050        6.3802277E-18
   57.37200        6.3796867E-18
   57.53350        6.3801888E-18
   57.69500        6.3812278E-18
   57.85650        6.3817332E-18
   58.01800        6.3812063E-18
   58.17950        6.3802401E-18
   58.34100        6.3799175E-18
   58.50250        6.3807360E-18
   58.66400        6.3821749E-18
   58.82550        6.3832874E-18
   58.98700        6.3836390E-18
   59.14850        6.3836253E-18
   59.31000        6.3839087E-18
   59.47150        6.3846630E-18
   59.63300        6.3854600E-18
   59.79450        6.3858658E-18
   59.95600        6.3859960E-18
   60.11750        6.3863509E-18
   60.27900        6.3871119E-18
   60.44050        6.3877840E-18
   60.60200        6.3877079E-18
   60.76350        6.3869353E-18
   60.92500        6.3864514E-18
   61.08650        6.3873518E-18
   61.24800        6.3897411E-18
   61.40950        6.3924935E-18
   61.57100        6.3941926E-18
   61.73250        6.3943832E-18
   61.89400        6.3939208E-18
   62.05550        6.3940830E-18
   62.21700        6.3953312E-18
   62.37850        6.3969289E-18
   62.54000        6.3977362E-18
   62.70150        6.3973152E-18
   62.86300        6.3962287E-18
   63.02450        6.3953328E-18
   63.18600        6.3949118E-18
   63.34750        6.3945884E-18
   63.50900        6.3939870E-18
   63.67050        6.3932761E-18
   63.83200        6.3929464E-18
   63.99350        6.3931106E-18
   64.15500        6.3932082E-18
   64.31650        6.3925382E-18
   64.47800        6.3910782E-18
   64.63950        6.3896625E-18
   64.80100        6.3892303E-18
   64.96250        6.3898780E-18
   65.12400        6.3907176E-18
   65.28550        6.3907532E-18
   65.44700        6.3899119E-18
   65.60850        6.3891596E-18
   65.77000        6.3895686E-18
   65.93150        6.3912954E-18
   66.09300        6.3935085E-18
   66.25450        6.3952931E-18
   66.41600        6.3965376E-18
   66.57750        6.3978934E-18
   66.73900        6.3999200E-18
   66.90050        6.4023817E-18
   67.06200        6.4044339E-18
   67.22350        6.4054600E-18
   67.38500        6.4056470E-18
   67.54650        6.4057098E-18
   67.70800        6.4061098E-18
   67.86950        6.4066218E-18
   68.03100        6.4067020E-18
   68.19250        6.4061974E-18
   68.35400        6.4055684E-18
   68.51550        6.4053616E-18
   68.67700        6.4055597E-18
   68.83850        6.4055680E-18
   69.00000        6.4049050E-18
   69.16150        6.4038048E-18
   69.32300        6.4030430E-18
   69.48450        6.4031145E-18
   69.64600        6.4036663E-18
   69.80750        6.4038292E-18
   69.96900        6.4031563E-18
   70.13050        6.4022022E-18
   70.29200        6.4021008E-18
   70.45350        6.4035054E-18
   70.61500        6.4059174E-18
   70.77650        6.4080822E-18
   70.93800        6.4090603E-18
   71.09950        6.4089549E-18
   71.26100        6.4086215E-18
   71.42250        6.4087435E-18
   71.58400        6.4092146E-18
   71.74550        6.4093780E-18
   71.90700        6.4087584E-18
   72.06850        6.4074858E-18
   72.23000        6.4060577E-18
   72.39150        6.4048256E-18
   72.55300        6.4038255E-18
   72.71450        6.4030633E-18
   72.87600        6.4028048E-18
   73.03750        6.4034161E-18
   73.19900        6.4048694E-18
   73.36050        6.4065105E-18
   73.52200        6.4074916E-18
   73.68350        6.4075420E-18
   73.84500        6.4072902E-18
   74.00650        6.4076864E-18
   74.16800        6.4090264E-18
   74.32950        6.4105455E-18
   74.49100        6.4110704E-18
   74.65250        6.4101398E-18
   74.81400        6.4085065E-18
   74.97550        6.4075081E-18
   75.13700        6.4078981E-18
   75.29850        6.4092419E-18
   75.46000        6.4104140E-18
   75.62150        6.4106667E-18
   75.78300        6.4102448E-18
   75.94450        6.4100132E-18
   76.10600        6.4105530E-18
   76.26750        6.4116556E-18
   76.42900        6.4126524E-18
   76.59050        6.4131338E-18
   76.75200        6.4132748E-18
   76.91350        6.4134853E-18
   77.07500        6.4138861E-18
   77.23650        6.4142240E-18
   77.39800        6.4142778E-18
   77.55950        6.4141938E-18
   77.72100        6.4143001E-18
   77.88250        6.4145971E-18
   78.04400        6.4145644E-18
   78.20550        6.4136053E-18
   78.36700        6.4117147E-18
   78.52850        6.4096220E-18
   78.69000        6.4081554E-18
   78.85150        6.4074167E-18
   79.01300        6.4066507E-18
   79.17450        6.4050353E-18
   79.33600        6.4026414E-18
   79.49750        6.4005544E-18
   79.65900        6.3999564E-18
   79.82050        6.4010379E-18
   79.98200        6.4028234E-18
   80.14350        6.4040902E-18
   80.30500        6.4044686E-18
   80.46650        6.4046593E-18
   80.62800        6.4056279E-18
   80.78950        6.4076206E-18
   80.95100        6.4099706E-18
   81.11250        6.4118028E-18
   81.27400        6.4128596E-18
   81.43550        6.4136280E-18
   81.59700        6.4147521E-18
   81.75850        6.4164268E-18
   81.92000        6.4183996E-18
   82.08150        6.4204345E-18
   82.24300        6.4225723E-18
   82.40450        6.4248537E-18
   82.56600        6.4268919E-18
   82.72750        6.4279498E-18
   82.88900        6.4275875E-18
   83.05050        6.4261950E-18
   83.21200        6.4247230E-18
   83.37350        6.4237659E-18
   83.53500        6.4229024E-18
   83.69650        6.4210573E-18
   83.85800        6.4176295E-18
   84.01950        6.4132905E-18
   84.18100        6.4096034E-18
   84.34250        6.4077563E-18
   84.50400        6.4076012E-18
   84.66550        6.4079130E-18
   84.82700        6.4075892E-18
   84.98850        6.4066127E-18
   85.15000        6.4058893E-18
   85.31150        6.4062388E-18
   85.47300        6.4076008E-18
   85.63450        6.4091877E-18
   85.79600        6.4102817E-18
   85.95750        6.4107887E-18
   86.11900        6.4110613E-18
   86.28050        6.4113400E-18
   86.44200        6.4115299E-18
   86.60350        6.4115137E-18
   86.76500        6.4115208E-18
   86.92650        6.4119943E-18
   87.08800        6.4130370E-18
   87.24950        6.4140991E-18
   87.41100        6.4143965E-18
   87.57250        6.4137103E-18
   87.73400        6.4127181E-18
   87.89550        6.4124108E-18
   88.05700        6.4131263E-18
   88.21850        6.4142166E-18
   88.38000        6.4147493E-18
   88.54150        6.4145722E-18
   88.70300        6.4146351E-18
   88.86450        6.4161720E-18
   89.02600        6.4195180E-18
   89.18750        6.4237076E-18
   89.34900        6.4272484E-18
   89.51050        6.4293109E-18
   89.67200        6.4302055E-18
   89.83350        6.4307672E-18
   89.99500        6.4313541E-18
   90.15650        6.4314744E-18
   90.31800        6.4303474E-18
   90.47950        6.4277385E-18
   90.64100        6.4242300E-18
   90.80250        6.4207368E-18
   90.96400        6.4178615E-18
   91.12550        6.4157092E-18
   91.28700        6.4141996E-18
   91.44850        6.4133542E-18
   91.61000        6.4131784E-18
   91.77150        6.4133803E-18
   91.93300        6.4134018E-18
   92.09450        6.4128984E-18
   92.25600        6.4121672E-18
   92.41750        6.4119538E-18
   92.57900        6.4126941E-18
   92.74050        6.4139237E-18
   92.90200        6.4145648E-18
   93.06350        6.4139254E-18
   93.22500        6.4124799E-18
   93.38650        6.4116076E-18
   93.54800        6.4124385E-18
   93.70950        6.4148473E-18
   93.87100        6.4175488E-18
   94.03250        6.4191941E-18
   94.19400        6.4194365E-18
   94.35550        6.4190200E-18
   94.51700        6.4188831E-18
   94.67850        6.4192222E-18
   94.84000        6.4193662E-18
   95.00150        6.4184914E-18
   95.16300        6.4164024E-18
   95.32450        6.4136785E-18
   95.48600        6.4111771E-18
   95.64750        6.4094971E-18
   95.80900        6.4088477E-18
   95.97050        6.4092642E-18
   96.13200        6.4107490E-18
   96.29350        6.4131441E-18
   96.45500        6.4160028E-18
   96.61650        6.4187607E-18
   96.77800        6.4211537E-18
   96.93950        6.4234090E-18
   97.10100        6.4259063E-18
   97.26250        6.4285929E-18
   97.42400        6.4308110E-18
   97.58550        6.4318355E-18
   97.74700        6.4316593E-18
   97.90850        6.4311948E-18
   98.07000        6.4315596E-18
   98.23150        6.4330486E-18
   98.39300        6.4347592E-18
   98.55450        6.4352902E-18
   98.71600        6.4338997E-18
   98.87750        6.4310782E-18
   99.03900        6.4280276E-18
   99.20050        6.4255597E-18
   99.36200        6.4234512E-18
   99.52350        6.4208216E-18
   99.68500        6.4171080E-18
   99.84650        6.4127094E-18
   100.0080        6.4087638E-18
   100.1695        6.4063455E-18
   100.3310        6.4058376E-18
   100.4925        6.4069274E-18
   100.6540        6.4090181E-18
   100.8155        6.4115998E-18
   100.9770        6.4143282E-18
   101.1385        6.4169665E-18
   101.3000        6.4193877E-18
   101.4615        6.4216302E-18
   101.6230        6.4237957E-18
   101.7845        6.4257677E-18
   101.9460        6.4270093E-18
   102.1075        6.4267860E-18
   102.2690        6.4247863E-18
   102.4305        6.4216020E-18
   102.5920        6.4185324E-18
   102.7535        6.4167341E-18
   102.9150        6.4164049E-18
   103.0765        6.4167440E-18
   103.2380        6.4167452E-18
   103.3995        6.4161166E-18
   103.5610        6.4154747E-18
   103.7225        6.4156827E-18
   103.8840        6.4169706E-18
   104.0455        6.4186738E-18
   104.2070        6.4198141E-18
   104.3685        6.4199692E-18
   104.5300        6.4196259E-18
   104.6915        6.4197326E-18
   104.8530        6.4209163E-18
   105.0145        6.4230860E-18
   105.1760        6.4256974E-18
   105.3375        6.4282923E-18
   105.4990        6.4307465E-18
   105.6605        6.4330779E-18
   105.8220        6.4351326E-18
   105.9835        6.4365558E-18
   106.1450        6.4370376E-18
   106.3065        6.4365140E-18
   106.4680        6.4350946E-18
   106.6295        6.4328612E-18
   106.7910        6.4298457E-18
   106.9525        6.4262739E-18
   107.1140        6.4227650E-18
   107.2755        6.4201276E-18
   107.4370        6.4187942E-18
   107.5985        6.4184170E-18
   107.7600        6.4181299E-18
   107.9215        6.4173466E-18
   108.0830        6.4163697E-18
   108.2445        6.4161530E-18
   108.4060        6.4173648E-18
   108.5675        6.4196304E-18
   108.7290        6.4217211E-18
   108.8905        6.4225562E-18
   109.0520        6.4220992E-18
   109.2135        6.4213440E-18
   109.3750        6.4214167E-18
   109.5365        6.4226542E-18
   109.6980        6.4244488E-18
   109.8595        6.4259121E-18
   110.0210        6.4266379E-18
   110.1825        6.4268737E-18
   110.3440        6.4270647E-18
   110.5055        6.4273485E-18
   110.6670        6.4274998E-18
   110.8285        6.4272484E-18
   110.9900        6.4265080E-18
   111.1515        6.4252801E-18
   111.3130        6.4234793E-18
   111.4745        6.4210445E-18
   111.6360        6.4182685E-18
   111.7975        6.4159061E-18
   111.9590        6.4147670E-18
   112.1205        6.4150818E-18
   112.2820        6.4162746E-18
   112.4435        6.4174533E-18
   112.6050        6.4182019E-18
   112.7665        6.4189017E-18
   112.9280        6.4202231E-18
   113.0895        6.4222539E-18
   113.2510        6.4241870E-18
   113.4125        6.4249430E-18
   113.5740        6.4241725E-18
   113.7355        6.4226302E-18
   113.8970        6.4215321E-18
   114.0585        6.4215061E-18
   114.2200        6.4221492E-18
   114.3815        6.4225533E-18
   114.5430        6.4222348E-18
   114.7045        6.4215607E-18
   114.8660        6.4213340E-18
   115.0275        6.4220185E-18
   115.1890        6.4233420E-18
   115.3505        6.4245952E-18
   115.5120        6.4252482E-18
   115.6735        6.4252809E-18
   115.8350        6.4250067E-18
   115.9965        6.4247217E-18
   116.1580        6.4245782E-18
   116.3195        6.4247114E-18
   116.4810        6.4252946E-18
   116.6425        6.4263368E-18
   116.8040        6.4274895E-18
   116.9655        6.4282195E-18
   117.1270        6.4282964E-18
   117.2885        6.4281041E-18
   117.4500        6.4283584E-18
   117.6115        6.4293970E-18
   117.7730        6.4306998E-18
   117.9345        6.4311754E-18
   118.0960        6.4300550E-18
   118.2575        6.4276132E-18
   118.4190        6.4250125E-18
   118.5805        6.4233561E-18
   118.7420        6.4227944E-18