  -27.90000       -1.4295619E-18
  -27.73850       -1.4319491E-18
  -27.57700       -1.4353248E-18
  -27.41550       -1.4379143E-18
  -27.25400       -1.4387817E-18
  -27.09250       -1.4384281E-18
  -26.93100       -1.4383610E-18
  -26.76950       -1.4399474E-18
  -26.60800       -1.4433855E-18
  -26.44650       -1.4475268E-18
  -26.28500       -1.4506686E-18
  -26.12350       -1.4517490E-18
  -25.96200       -1.4510958E-18
  -25.80050       -1.4501923E-18
  -25.63900       -1.4506404E-18
  -25.47750       -1.4530475E-18
  -25.31600       -1.4566224E-18
  -25.15450       -1.4597608E-18
  -24.99300       -1.4611935E-18
  -24.83150       -1.4608836E-18
  -24.67000       -1.4600445E-18
  -24.50850       -1.4602620E-18
  -24.34700       -1.4623525E-18
  -24.18550       -1.4657751E-18
  -24.02400       -1.4690191E-18
  -23.86250       -1.4706876E-18
  -23.70100       -1.4705036E-18
  -23.53950       -1.4695110E-18
  -23.37800       -1.4693193E-18
  -23.21650       -1.4709449E-18
  -23.05500       -1.4740820E-18
  -22.89350       -1.4773257E-18
  -22.73200       -1.4791896E-18
  -22.57050       -1.4791653E-18
  -22.40900       -1.4780718E-18
  -22.24750       -1.4774552E-18
  -22.08600       -1.4784789E-18
  -21.92450       -1.4811044E-18
  -21.76300       -1.4841387E-18
  -21.60150       -1.4861037E-18
  -21.44000       -1.4863020E-18
  -21.27850       -1.4853256E-18
  -21.11700       -1.4846430E-18
  -20.95550       -1.4855622E-18
  -20.79400       -1.4882969E-18
  -20.63250       -1.4917948E-18
  -20.47100       -1.4944557E-18
  -20.30950       -1.4952447E-18
  -20.14800       -1.4944142E-18
  -19.98650       -1.4933209E-18
  -19.82500       -1.4934547E-18
  -19.66350       -1.4953724E-18
  -19.50200       -1.4983024E-18
  -19.34050       -1.5007120E-18
  -19.17900       -1.5014269E-18
  -19.01750       -1.5004981E-18
  -18.85600       -1.4991902E-18
  -18.69450       -1.4990970E-18
  -18.53300       -1.5010192E-18
  -18.37150       -1.5043984E-18
  -18.21000       -1.5077115E-18
  -18.04850       -1.5095195E-18
  -17.88700       -1.5094439E-18
  -17.72550       -1.5083821E-18
  -17.56400       -1.5078400E-18
  -17.40250       -1.5088637E-18
  -17.24100       -1.5113119E-18
  -17.07950       -1.5139650E-18
  -16.91800       -1.5153896E-18
  -16.75650       -1.5149622E-18
  -16.59500       -1.5133452E-18
  -16.43350       -1.5120687E-18
  -16.27200       -1.5125014E-18
  -16.11050       -1.5149179E-18
  -15.94900       -1.5183125E-18
  -15.78750       -1.5211070E-18
  -15.62600       -1.5222543E-18
  -15.46450       -1.5219636E-18
  -15.30300       -1.5215229E-18
  -15.14150       -1.5223352E-18
  -14.98000       -1.5248724E-18
  -14.81850       -1.5283013E-18
  -14.65700       -1.5310589E-18
  -14.49550       -1.5319571E-18
  -14.33400       -1.5310138E-18
  -14.17250       -1.5294169E-18
  -14.01100       -1.5286691E-18
  -13.84950       -1.5295389E-18
  -13.68800       -1.5315574E-18
  -13.52650       -1.5333958E-18
  -13.36500       -1.5338436E-18
  -13.20350       -1.5326815E-18
  -13.04200       -1.5308528E-18
  -12.88050       -1.5298233E-18
  -12.71900       -1.5305847E-18
  -12.55750       -1.5329821E-18
  -12.39600       -1.5358298E-18
  -12.23450       -1.5377446E-18
  -12.07300       -1.5381362E-18
  -11.91150       -1.5376473E-18
  -11.75000       -1.5377119E-18
  -11.58850       -1.5395165E-18
  -11.42700       -1.5430980E-18
  -11.26550       -1.5472445E-18
  -11.10400       -1.5503030E-18
  -10.94250       -1.5513263E-18
  -10.78100       -1.5507299E-18
  -10.61950       -1.5499674E-18
  -10.45800       -1.5504650E-18
  -10.29650       -1.5525781E-18
  -10.13500       -1.5553414E-18
  -9.973500       -1.5571766E-18
  -9.812000       -1.5570464E-18
  -9.650500       -1.5552222E-18
  -9.489000       -1.5531310E-18
  -9.327500       -1.5523928E-18
  -9.166000       -1.5537173E-18
  -9.004500       -1.5564037E-18
  -8.843000       -1.5587983E-18
  -8.681500       -1.5594060E-18
  -8.520000       -1.5579234E-18
  -8.358500       -1.5554720E-18
  -8.197000       -1.5538377E-18
  -8.035500       -1.5542146E-18
  -7.874000       -1.5563346E-18
  -7.712500       -1.5586352E-18
  -7.551000       -1.5593861E-18
  -7.389500       -1.5579978E-18
  -7.228000       -1.5555385E-18
  -7.066500       -1.5540450E-18
  -6.905000       -1.5550930E-18
  -6.743500       -1.5586702E-18
  -6.582000       -1.5631841E-18
  -6.420500       -1.5666038E-18
  -6.259000       -1.5678925E-18
  -6.097500       -1.5676963E-18
  -5.936000       -1.5678077E-18
  -5.774500       -1.5698167E-18
  -5.613000       -1.5739283E-18
  -5.451500       -1.5787806E-18
  -5.290000       -1.5823683E-18
  -5.128500       -1.5834236E-18
  -4.967000       -1.5822826E-18
  -4.805500       -1.5806437E-18
  -4.644000       -1.5803776E-18
  -4.482500       -1.5822121E-18
  -4.321000       -1.5852084E-18
  -4.159500       -1.5874313E-18
  -3.998000       -1.5873563E-18
  -3.836500       -1.5850195E-18
  -3.675000       -1.5820582E-18
  -3.513500       -1.5805542E-18
  -3.352000       -1.5815142E-18
  -3.190500       -1.5841140E-18
  -3.029000       -1.5863014E-18
  -2.867500       -1.5863306E-18
  -2.706000       -1.5840791E-18
  -2.544500       -1.5811545E-18
  -2.383000       -1.5797175E-18
  -2.221500       -1.5808857E-18
  -2.060000       -1.5839184E-18
  -1.898500       -1.5867642E-18
  -1.737000       -1.5875484E-18
  -1.575500       -1.5859174E-18
  -1.414000       -1.5832853E-18
  -1.252500       -1.5818242E-18
  -1.091000       -1.5829382E-18
 -0.9295000       -1.5862739E-18
 -0.7680000       -1.5899643E-18
 -0.6065000       -1.5919410E-18
 -0.4450000       -1.5914264E-18
 -0.2835000       -1.5895523E-18
 -0.1220000       -1.5886235E-18
  3.9500002E-02   -1.5904815E-18
  0.2010000       -1.5951143E-18
  0.3625000       -1.6005554E-18
  0.5240000       -1.6042167E-18
  0.6855000       -1.6047343E-18
  0.8470000       -1.6029649E-18
   1.008500       -1.6013537E-18
   1.170000       -1.6021126E-18
   1.331500       -1.6055576E-18
   1.493000       -1.6098636E-18
   1.654500       -1.6124220E-18
   1.816000       -1.6117808E-18
   1.977500       -1.6087225E-18
   2.139000       -1.6057087E-18
   2.300500       -1.6051345E-18
   2.462000       -1.6076800E-18
   2.623500       -1.6119047E-18
   2.785000       -1.6153135E-18
   2.946500       -1.6161057E-18
   3.108000       -1.6143938E-18
   3.269500       -1.6120747E-18
   3.431000       -1.6114581E-18
   3.592500       -1.6135982E-18
   3.754000       -1.6174868E-18
   3.915500       -1.6207105E-18
   4.077000       -1.6211522E-18
   4.238500       -1.6185541E-18
   4.400000       -1.6147780E-18
   4.561500       -1.6125153E-18
   4.723000       -1.6133438E-18
   4.884500       -1.6165705E-18
   5.046000       -1.6197626E-18
   5.207500       -1.6205930E-18
   5.369000       -1.6185994E-18
   5.530500       -1.6155097E-18
   5.692000       -1.6139021E-18
   5.853500       -1.6152502E-18
   6.015000       -1.6188321E-18
   6.176500       -1.6222890E-18
   6.338000       -1.6233629E-18
   6.499500       -1.6215077E-18
   6.661000       -1.6182433E-18
   6.822500       -1.6160541E-18
   6.984000       -1.6166448E-18
   7.145500       -1.6197659E-18
   7.307000       -1.6233909E-18
   7.468500       -1.6251226E-18
   7.630000       -1.6238709E-18
   7.791500       -1.6206710E-18
   7.953000       -1.6180184E-18
   8.114500       -1.6181265E-18
   8.276000       -1.6212942E-18
   8.437500       -1.6255996E-18
   8.599000       -1.6282528E-18
   8.760500       -1.6276866E-18
   8.922000       -1.6248248E-18
   9.083500       -1.6225042E-18
   9.245000       -1.6234073E-18
   9.406500       -1.6280485E-18
   9.568000       -1.6343468E-18
   9.729500       -1.6391229E-18
   9.891000       -1.6404033E-18
   10.05250       -1.6387944E-18
   10.21400       -1.6369319E-18
   10.37550       -1.6374701E-18
   10.53700       -1.6411369E-18
   10.69850       -1.6462551E-18
   10.86000       -1.6500023E-18
   11.02150       -1.6504432E-18
   11.18300       -1.6478954E-18
   11.34450       -1.6447034E-18
   11.50600       -1.6436272E-18
   11.66750       -1.6459493E-18
   11.82900       -1.6505789E-18
   11.99050       -1.6547816E-18
   12.15200       -1.6560666E-18
   12.31350       -1.6539411E-18
   12.47500       -1.6502798E-18
   12.63650       -1.6479838E-18
   12.79800       -1.6488535E-18
   12.95950       -1.6522248E-18
   13.12100       -1.6554275E-18
   13.28250       -1.6557927E-18
   13.44400       -1.6527292E-18
   13.60550       -1.6482666E-18
   13.76700       -1.6456070E-18
   13.92850       -1.6467643E-18
   14.09000       -1.6510859E-18
   14.25150       -1.6557667E-18
   14.41300       -1.6579374E-18
   14.57450       -1.6567224E-18
   14.73600       -1.6537610E-18
   14.89750       -1.6518849E-18
   15.05900       -1.6529911E-18
   15.22050       -1.6566720E-18
   15.38200       -1.6605371E-18
   15.54350       -1.6619365E-18
   15.70500       -1.6598425E-18
   15.86650       -1.6555827E-18
   16.02800       -1.6519441E-18
   16.18950       -1.6512610E-18
   16.35100       -1.6537813E-18
   16.51250       -1.6574595E-18
   16.67400       -1.6593742E-18
   16.83550       -1.6578391E-18
   16.99700       -1.6537128E-18
   17.15850       -1.6498835E-18
   17.32000       -1.6492124E-18
   17.48150       -1.6524155E-18
   17.64300       -1.6575022E-18
   17.80450       -1.6612644E-18
   17.96600       -1.6617119E-18
   18.12750       -1.6596113E-18
   18.28900       -1.6579242E-18
   18.45050       -1.6595555E-18
   18.61200       -1.6651341E-18
   18.77350       -1.6724910E-18
   18.93500       -1.6782126E-18
   19.09650       -1.6800626E-18
   19.25800       -1.6784851E-18
   19.41950       -1.6761417E-18
   19.58100       -1.6759156E-18
   19.74250       -1.6788496E-18
   19.90400       -1.6834558E-18
   20.06550       -1.6868247E-18
   20.22700       -1.6867229E-18
   20.38850       -1.6832239E-18
   20.55000       -1.6787271E-18
   20.71150       -1.6763310E-18
   20.87300       -1.6776663E-18
   21.03450       -1.6817077E-18
   21.19600       -1.6854653E-18
   21.35750       -1.6861070E-18
   21.51900       -1.6830218E-18
   21.68050       -1.6783011E-18
   21.84200       -1.6752306E-18
   22.00350       -1.6758700E-18
   22.16500       -1.6795224E-18
   22.32650       -1.6832663E-18
   22.48800       -1.6841603E-18
   22.64950       -1.6814671E-18
   22.81100       -1.6772235E-18
   22.97250       -1.6747542E-18
   23.13400       -1.6762562E-18
   23.29550       -1.6812322E-18
   23.45700       -1.6868859E-18
   23.61850       -1.6901423E-18
   23.78000       -1.6898078E-18
   23.94150       -1.6873194E-18
   24.10300       -1.6856065E-18
   24.26450       -1.6869094E-18
   24.42600       -1.6911421E-18
   24.58750       -1.6959535E-18
   24.74900       -1.6984219E-18
   24.91050       -1.6971751E-18
   25.07200       -1.6934182E-18
   25.23350       -1.6901138E-18
   25.39500       -1.6898724E-18
   25.55650       -1.6930604E-18
   25.71800       -1.6975268E-18
   25.87950       -1.7001690E-18
   26.04100       -1.6992200E-18
   26.20250       -1.6955596E-18
   26.36400       -1.6920640E-18
   26.52550       -1.6914661E-18
   26.68700       -1.6943098E-18
   26.84850       -1.6985322E-18
   27.01000       -1.7009930E-18
   27.17150       -1.6998228E-18
   27.33300       -1.6958377E-18
   27.49450       -1.6919685E-18
   27.65600       -1.6911261E-18
   27.81750       -1.6940846E-18
   27.97900       -1.6989310E-18
   28.14050       -1.7024611E-18
   28.30200       -1.7025082E-18
   28.46350       -1.6994967E-18
   28.62500       -1.6961208E-18
   28.78650       -1.6953757E-18
   28.94800       -1.6983861E-18
   29.10950       -1.7036060E-18
   29.27100       -1.7079634E-18
   29.43250       -1.7091161E-18
   29.59400       -1.7071636E-18
   29.75550       -1.7045767E-18
   29.91700       -1.7044064E-18
   30.07850       -1.7080693E-18
   30.24000       -1.7143158E-18
   30.40150       -1.7200981E-18
   30.56300       -1.7226928E-18
   30.72450       -1.7215483E-18
   30.88600       -1.7185536E-18
   31.04750       -1.7165821E-18
   31.20900       -1.7173948E-18
   31.37050       -1.7204013E-18
   31.53200       -1.7231377E-18
   31.69350       -1.7230952E-18
   31.85500       -1.7195873E-18
   32.01650       -1.7143237E-18
   32.17800       -1.7102677E-18
   32.33950       -1.7095762E-18
   32.50100       -1.7120938E-18
   32.66250       -1.7155090E-18
   32.82400       -1.7170736E-18
   32.98550       -1.7156179E-18
   33.14700       -1.7123742E-18
   33.30850       -1.7099837E-18
   33.47000       -1.7104631E-18
   33.63150       -1.7136686E-18
   33.79300       -1.7174291E-18
   33.95450       -1.7192116E-18
   34.11600       -1.7180279E-18
   34.27750       -1.7151491E-18
   34.43900       -1.7131366E-18
   34.60050       -1.7139680E-18
   34.76200       -1.7176553E-18
   34.92350       -1.7223131E-18
   35.08500       -1.7255512E-18
   35.24650       -1.7261545E-18
   35.40800       -1.7248759E-18
   35.56950       -1.7238388E-18
   35.73100       -1.7249916E-18
   35.89250       -1.7286801E-18
   36.05400       -1.7333391E-18
   36.21550       -1.7365526E-18
   36.37700       -1.7367774E-18
   36.53850       -1.7345030E-18
   36.70000       -1.7319627E-18
   36.86150       -1.7315383E-18
   37.02300       -1.7339961E-18
   37.18450       -1.7378792E-18
   37.34600       -1.7405596E-18
   37.50750       -1.7401847E-18
   37.66900       -1.7370427E-18
   37.83050       -1.7333187E-18
   37.99200       -1.7314455E-18
   38.15350       -1.7323286E-18
   38.31500       -1.7347696E-18
   38.47650       -1.7364498E-18
   38.63800       -1.7356601E-18
   38.79950       -1.7325024E-18
   38.96100       -1.7287556E-18
   39.12250       -1.7266064E-18
   39.28400       -1.7271793E-18
   39.44550       -1.7298464E-18
   39.60700       -1.7327033E-18
   39.76850       -1.7338600E-18
   39.93000       -1.7326966E-18
   40.09150       -1.7302696E-18
   40.25300       -1.7285845E-18
   40.41450       -1.7291983E-18
   40.57600       -1.7320841E-18
   40.73750       -1.7356075E-18
   40.89900       -1.7377030E-18
   41.06050       -1.7374511E-18
   41.22200       -1.7358604E-18
   41.38350       -1.7351867E-18
   41.54500       -1.7372466E-18
   41.70650       -1.7420136E-18
   41.86800       -1.7476124E-18
   42.02950       -1.7517222E-18
   42.19100       -1.7532755E-18
   42.35250       -1.7531237E-18
   42.51400       -1.7531998E-18
   42.67550       -1.7548918E-18
   42.83700       -1.7579352E-18
   42.99850       -1.7606330E-18
   43.16000       -1.7611600E-18
   43.32150       -1.7589117E-18
   43.48300       -1.7549106E-18
   43.64450       -1.7510603E-18
   43.80600       -1.7488641E-18
   43.96750       -1.7485024E-18
   44.12900       -1.7488606E-18
   44.29050       -1.7484183E-18
   44.45200       -1.7463894E-18
   44.61350       -1.7433448E-18
   44.77500       -1.7408713E-18
   44.93650       -1.7404618E-18
   45.09800       -1.7423956E-18
   45.25950       -1.7454493E-18
   45.42100       -1.7477251E-18
   45.58250       -1.7480367E-18
   45.74400       -1.7468135E-18
   45.90550       -1.7458000E-18
   46.06700       -1.7467292E-18
   46.22850       -1.7499744E-18
   46.39000       -1.7542402E-18
   46.55150       -1.7575371E-18
   46.71300       -1.7586741E-18
   46.87450       -1.7580969E-18
   47.03600       -1.7574523E-18
   47.19750       -1.7582708E-18
   47.35900       -1.7608123E-18
   47.52050       -1.7639112E-18
   47.68200       -1.7658674E-18
   47.84350       -1.7656755E-18
   48.00500       -1.7637141E-18
   48.16650       -1.7614623E-18
   48.32800       -1.7604868E-18
   48.48950       -1.7614108E-18
   48.65100       -1.7635561E-18
   48.81250       -1.7654621E-18
   48.97400       -1.7659121E-18
   49.13550       -1.7647669E-18
   49.29700       -1.7630352E-18
   49.45850       -1.7621089E-18
   49.62000       -1.7627113E-18
   49.78150       -1.7643262E-18
   49.94300       -1.7655701E-18
   50.10450       -1.7652624E-18
   50.26600       -1.7633648E-18
   50.42750       -1.7610613E-18
   50.58900       -1.7598966E-18
   50.75050       -1.7606548E-18
   50.91200       -1.7628499E-18
   51.07350       -1.7651929E-18
   51.23500       -1.7666220E-18
   51.39650       -1.7670706E-18
   51.55800       -1.7673760E-18
   51.71950       -1.7684671E-18
   51.88100       -1.7705313E-18
   52.04250       -1.7728387E-18
   52.20400       -1.7743130E-18
   52.36550       -1.7743529E-18
   52.52700       -1.7732397E-18
   52.68850       -1.7718794E-18
   52.85000       -1.7711335E-18
   53.01150       -1.7712716E-18
   53.17300       -1.7719090E-18
   53.33450       -1.7724088E-18
   53.49600       -1.7724082E-18
   53.65750       -1.7720852E-18
   53.81900       -1.7720037E-18
   53.98050       -1.7726696E-18
   54.14200       -1.7741074E-18
   54.30350       -1.7757537E-18
   54.46500       -1.7767560E-18
   54.62650       -1.7765100E-18
   54.78800       -1.7750895E-18
   54.94950       -1.7732587E-18
   55.11100       -1.7719942E-18
   55.27250       -1.7718351E-18
   55.43400       -1.7725331E-18
   55.59550       -1.7732765E-18
   55.75700       -1.7733536E-18
   55.91850       -1.7727411E-18
   56.08000       -1.7721635E-18
   56.24150       -1.7725614E-18
   56.40300       -1.7743671E-18
   56.56450       -1.7771341E-18
   56.72600       -1.7798106E-18
   56.88750       -1.7814637E-18
   57.04900       -1.7819222E-18
   57.21050       -1.7818744E-18
   57.37200       -1.7823672E-18
   57.53350       -1.7840878E-18
   57.69500       -1.7869175E-18
   57.85650       -1.7900447E-18
   58.01800       -1.7925264E-18
   58.17950       -1.7938878E-18
   58.34100       -1.7943671E-18
   58.50250       -1.7946492E-18
   58.66400       -1.7952929E-18
   58.82550       -1.7962738E-18
   58.98700       -1.7969680E-18
   59.14850       -1.7965984E-18
   59.31000       -1.7948217E-18
   59.47150       -1.7920270E-18
   59.63300       -1.7891338E-18
   59.79450       -1.7870178E-18
   59.95600       -1.7859824E-18
   60.11750       -1.7856480E-18
   60.27900       -1.7853484E-18
   60.44050       -1.7847079E-18
   60.60200       -1.7839430E-18
   60.76350       -1.7836322E-18
   60.92500       -1.7841568E-18
   61.08650       -1.7852743E-18
   61.24800       -1.7862060E-18
   61.40950       -1.7861803E-18
   61.57100       -1.7850272E-18
   61.73250       -1.7833447E-18
   61.89400       -1.7821120E-18
   62.05550       -1.7820235E-18
   62.21700       -1.7830637E-18
   62.37850       -1.7846157E-18
   62.54000       -1.7860118E-18
   62.70150       -1.7870886E-18
   62.86300       -1.7883291E-18
   63.02450       -1.7904891E-18
   63.18600       -1.7939717E-18
   63.34750       -1.7983899E-18
   63.50900       -1.8026257E-18
   63.67050       -1.8054195E-18
   63.83200       -1.8061412E-18
   63.99350       -1.8052381E-18
   64.15500       -1.8039918E-18
   64.31650       -1.8036841E-18
   64.47800       -1.8047036E-18
   64.63950       -1.8062568E-18
   64.80100       -1.8069438E-18
   64.96250       -1.8058306E-18
   65.12400       -1.8032444E-18
   65.28550       -1.8006303E-18
   65.44700       -1.7995234E-18
   65.60850       -1.8003725E-18
   65.77000       -1.8021406E-18
   65.93150       -1.8030283E-18
   66.09300       -1.8018095E-18
   66.25450       -1.7987758E-18
   66.41600       -1.7955897E-18
   66.57750       -1.7941533E-18
   66.73900       -1.7953180E-18
   66.90050       -1.7983417E-18
   67.06200       -1.8014724E-18
   67.22350       -1.8032084E-18
   67.38500       -1.8033296E-18
   67.54650       -1.8029650E-18
   67.70800       -1.8036659E-18
   67.86950       -1.8061708E-18
   68.03100       -1.8097554E-18
   68.19250       -1.8126530E-18
   68.35400       -1.8132837E-18
   68.51550       -1.8114228E-18
   68.67700       -1.8084466E-18
   68.83850       -1.8064287E-18
   69.00000       -1.8067051E-18
   69.16150       -1.8089617E-18
   69.32300       -1.8115363E-18
   69.48450       -1.8127241E-18
   69.64600       -1.8120988E-18
   69.80750       -1.8108373E-18
   69.96900       -1.8107829E-18
   70.13050       -1.8129456E-18
   70.29200       -1.8165951E-18
   70.45350       -1.8196793E-18
   70.61500       -1.8202926E-18
   70.77650       -1.8181157E-18
   70.93800       -1.8147211E-18
   71.09950       -1.8124973E-18
   71.26100       -1.8129681E-18
   71.42250       -1.8157301E-18
   71.58400       -1.8187942E-18
   71.74550       -1.8200749E-18
   71.90700       -1.8189547E-18
   72.06850       -1.8167529E-18
   72.23000       -1.8157311E-18
   72.39150       -1.8173210E-18
   72.55300       -1.8209004E-18
   72.71450       -1.8240623E-18
   72.87600       -1.8242523E-18
   73.03750       -1.8206272E-18
   73.19900       -1.8147716E-18
   73.36050       -1.8096898E-18
   73.52200       -1.8077441E-18
   73.68350       -1.8090107E-18
   73.84500       -1.8112776E-18
   74.00650       -1.8117334E-18
   74.16800       -1.8091193E-18
   74.32950       -1.8047491E-18
   74.49100       -1.8015957E-18
   74.65250       -1.8021060E-18
   74.81400       -1.8063515E-18
   74.97550       -1.8118969E-18
   75.13700       -1.8155200E-18
   75.29850       -1.8155405E-18
   75.46000       -1.8130480E-18
   75.62150       -1.8111126E-18
   75.78300       -1.8125395E-18
   75.94450       -1.8178115E-18
   76.10600       -1.8247182E-18
   76.26750       -1.8299332E-18
   76.42900       -1.8313845E-18
   76.59050       -1.8296946E-18
   76.75200       -1.8276500E-18
   76.91350       -1.8280929E-18
   77.07500       -1.8317764E-18
   77.23650       -1.8367624E-18
   77.39800       -1.8398302E-18
   77.55950       -1.8388632E-18
   77.72100       -1.8344717E-18
   77.88250       -1.8296344E-18
   78.04400       -1.8276115E-18
   78.20550       -1.8296439E-18
   78.36700       -1.8341256E-18
   78.52850       -1.8378485E-18
   78.69000       -1.8383969E-18
   78.85150       -1.8359185E-18
   79.01300       -1.8329487E-18
   79.17450       -1.8324381E-18
   79.33600       -1.8354681E-18
   79.49750       -1.8403673E-18
   79.65900       -1.8438931E-18
   79.82050       -1.8435910E-18
   79.98200       -1.8395969E-18
   80.14350       -1.8345640E-18
   80.30500       -1.8317772E-18
   80.46650       -1.8328263E-18
   80.62800       -1.8365194E-18
   80.78950       -1.8398102E-18
   80.95100       -1.8400451E-18
   81.11250       -1.8368925E-18
   81.27400       -1.8325585E-18
   81.43550       -1.8301394E-18
   81.59700       -1.8313210E-18
   81.75850       -1.8351004E-18
   81.92000       -1.8384730E-18
   82.08150       -1.8386076E-18
   82.24300       -1.8349250E-18
   82.40450       -1.8295595E-18
   82.56600       -1.8258461E-18
   82.72750       -1.8259437E-18
   82.88900       -1.8293240E-18
   83.05050       -1.8332221E-18
   83.21200       -1.8346820E-18
   83.37350       -1.8326888E-18
   83.53500       -1.8288479E-18
   83.69650       -1.8261629E-18
   83.85800       -1.8268319E-18
   84.01950       -1.8306659E-18
   84.18100       -1.8352408E-18
   84.34250       -1.8376419E-18
   84.50400       -1.8365376E-18
   84.66550       -1.8331166E-18
   84.82700       -1.8302515E-18
   84.98850       -1.8304814E-18
   85.15000       -1.8342370E-18
   85.31150       -1.8395380E-18
   85.47300       -1.8433941E-18
   85.63450       -1.8439214E-18
   85.79600       -1.8416738E-18
   85.95750       -1.8392220E-18
   86.11900       -1.8392626E-18
   86.28050       -1.8426362E-18
   86.44200       -1.8477077E-18
   86.60350       -1.8515710E-18
   86.76500       -1.8521918E-18
   86.92650       -1.8499084E-18
   87.08800       -1.8471950E-18
   87.24950       -1.8468788E-18
   87.41100       -1.8501125E-18
   87.57250       -1.8555599E-18
   87.73400       -1.8603466E-18
   87.89550       -1.8620588E-18
   88.05700       -1.8603569E-18
   88.21850       -1.8571036E-18
   88.38000       -1.8549641E-18
   88.54150       -1.8554968E-18
   88.70300       -1.8580619E-18
   88.86450       -1.8602887E-18
   89.02600       -1.8597901E-18
   89.18750       -1.8559265E-18
   89.34900       -1.8503706E-18
   89.51050       -1.8460270E-18
   89.67200       -1.8450435E-18
   89.83350       -1.8473119E-18
   89.99500       -1.8505699E-18
   90.15650       -1.8520471E-18
   90.31800       -1.8504777E-18
   90.47950       -1.8470023E-18
   90.64100       -1.8442937E-18
   90.80250       -1.8445511E-18
   90.96400       -1.8478623E-18
   91.12550       -1.8521459E-18
   91.28700       -1.8546862E-18
   91.44850       -1.8540993E-18
   91.61000       -1.8512825E-18
   91.77150       -1.8487168E-18
   91.93300       -1.8486684E-18
   92.09450       -1.8515998E-18
   92.25600       -1.8558763E-18
   92.41750       -1.8589348E-18
   92.57900       -1.8590733E-18
   92.74050       -1.8566323E-18
   92.90200       -1.8537471E-18
   93.06350       -1.8528447E-18
   93.22500       -1.8549192E-18
   93.38650       -1.8587911E-18
   93.54800       -1.8619124E-18
   93.70950       -1.8621930E-18
   93.87100       -1.8595713E-18
   94.03250       -1.8561534E-18
   94.19400       -1.8547389E-18
   94.35550       -1.8567657E-18
   94.51700       -1.8611932E-18
   94.67850       -1.8651955E-18
   94.84000       -1.8661929E-18
   95.00150       -1.8637161E-18
   95.16300       -1.8597409E-18
   95.32450       -1.8572517E-18
   95.48600       -1.8581070E-18
   95.64750       -1.8617596E-18
   95.80900       -1.8657230E-18
   95.97050       -1.8674018E-18
   96.13200       -1.8659522E-18
   96.29350       -1.8628637E-18
   96.45500       -1.8608813E-18
   96.61650       -1.8620665E-18
   96.77800       -1.8663391E-18
   96.93950       -1.8714883E-18
   97.10100       -1.8746361E-18
   97.26250       -1.8741723E-18
   97.42400       -1.8708375E-18
   97.58550       -1.8671996E-18
   97.74700       -1.8658653E-18
   97.90850       -1.8676644E-18
   98.07000       -1.8711057E-18
   98.23150       -1.8734927E-18
   98.39300       -1.8728974E-18
   98.55450       -1.8695589E-18
   98.71600       -1.8657061E-18
   98.87750       -1.8639545E-18
   99.03900       -1.8654445E-18
   99.20050       -1.8690574E-18
   99.36200       -1.8722439E-18
   99.52350       -1.8728333E-18
   99.68500       -1.8705106E-18
   99.84650       -1.8669425E-18
   100.0080       -1.8645364E-18
   100.1695       -1.8647383E-18
   100.3310       -1.8670724E-18
   100.4925       -1.8695372E-18
   100.6540       -1.8700579E-18
   100.8155       -1.8679895E-18
   100.9770       -1.8646146E-18
   101.1385       -1.8622766E-18
   101.3000       -1.8627326E-18
   101.4615       -1.8658860E-18
   101.6230       -1.8698321E-18
   101.7845       -1.8722042E-18
   101.9460       -1.8718845E-18
   102.1075       -1.8698345E-18
   102.2690       -1.8684172E-18
   102.4305       -1.8696594E-18
   102.5920       -1.8737066E-18
   102.7535       -1.8786335E-18
   102.9150       -1.8817894E-18
   103.0765       -1.8817083E-18
   103.2380       -1.8791593E-18
   103.3995       -1.8765605E-18
   103.5610       -1.8761800E-18
   103.7225       -1.8784337E-18
   103.8840       -1.8815344E-18
   104.0455       -1.8827654E-18
   104.2070       -1.8804874E-18
   104.3685       -1.8754341E-18
   104.5300       -1.8703253E-18
   104.6915       -1.8680441E-18
   104.8530       -1.8696565E-18
   105.0145       -1.8737028E-18
   105.1760       -1.8772612E-18
   105.3375       -1.8780288E-18
   105.4990       -1.8759482E-18
   105.6605       -1.8732204E-18
   105.8220       -1.8726852E-18
   105.9835       -1.8757195E-18
   106.1450       -1.8811665E-18
   106.3065       -1.8860884E-18
   106.4680       -1.8878156E-18
   106.6295       -1.8858256E-18
   106.7910       -1.8821202E-18
   106.9525       -1.8798316E-18
   107.1140       -1.8810395E-18
   107.2755       -1.8853136E-18
   107.4370       -1.8900120E-18
   107.5985       -1.8921384E-18
   107.7600       -1.8904588E-18
   107.9215       -1.8863798E-18
   108.0830       -1.8829462E-18
   108.2445       -1.8826699E-18
   108.4060       -1.8857429E-18
   108.5675       -1.8899265E-18
   108.7290       -1.8921864E-18
   108.8905       -1.8908948E-18
   109.0520       -1.8869985E-18
   109.2135       -1.8833019E-18
   109.3750       -1.8823839E-18
   109.5365       -1.8846965E-18
   109.6980       -1.8882439E-18
   109.8595       -1.8900608E-18
   110.0210       -1.8883652E-18
   110.1825       -1.8838143E-18
   110.3440       -1.8789774E-18
   110.5055       -1.8764770E-18
   110.6670       -1.8771673E-18
   110.8285       -1.8796490E-18
   110.9900       -1.8814209E-18
   111.1515       -1.8807866E-18
   111.3130       -1.8781080E-18
   111.4745       -1.8755090E-18
   111.6360       -1.8752720E-18
   111.7975       -1.8781272E-18
   111.9590       -1.8826695E-18
   112.1205       -1.8863252E-18
   112.2820       -1.8871631E-18
   112.4435       -1.8852486E-18
   112.6050       -1.8825667E-18
   112.7665       -1.8815625E-18
   112.9280       -1.8833811E-18
   113.0895       -1.8870908E-18
   113.2510       -1.8904553E-18
   113.4125       -1.8916597E-18
   113.5740       -1.8907000E-18
   113.7355       -1.8894079E-18
   113.8970       -1.8900934E-18
   114.0585       -1.8937959E-18
   114.2200       -1.8994226E-18
   114.3815       -1.9044146E-18
   114.5430       -1.9064646E-18
   114.7045       -1.9050658E-18
   114.8660       -1.9017947E-18
   115.0275       -1.8991544E-18
   115.1890       -1.8988239E-18
   115.3505       -1.9005455E-18
   115.5120       -1.9023946E-18
   115.6735       -1.9022127E-18
   115.8350       -1.8991763E-18
   115.9965       -1.8944231E-18
   116.1580       -1.8902986E-18
   116.3195       -1.8887565E-18
   116.4810       -1.8900080E-18
   116.6425       -1.8923640E-18
   116.8040       -1.8933902E-18
   116.9655       -1.8916026E-18
   117.1270       -1.8875486E-18
   117.2885       -1.8835161E-18
   117.4500       -1.8820530E-18
   117.6115       -1.8842953E-18
   117.7730       -1.8892582E-18
   117.9345       -1.8945538E-18
   118.0960       -1.8980315E-18
   118.2575       -1.8991558E-18
   118.4190       -1.8991906E-18
   118.5805       -1.9001036E-18
   118.7420       -1.9030274E-18