  -27.90000        9.1613363E-18
  -27.73850        9.1882825E-18
  -27.57700        9.2264710E-18
  -27.41550        9.2559112E-18
  -27.25400        9.2659383E-18
  -27.09250        9.2620588E-18
  -26.93100        9.2612432E-18
  -26.76950        9.2790987E-18
  -26.60800        9.3181044E-18
  -26.44650        9.3653372E-18
  -26.28500        9.4013337E-18
  -26.12350        9.4137786E-18
  -25.96200        9.4062463E-18
  -25.80050        9.3957328E-18
  -25.63900        9.4007174E-18
  -25.47750        9.4282311E-18
  -25.31600        9.4691178E-18
  -25.15450        9.5048024E-18
  -24.99300        9.5206685E-18
  -24.83150        9.5164664E-18
  -24.67000        9.5063558E-18
  -24.50850        9.5086314E-18
  -24.34700        9.5325419E-18
  -24.18550        9.5716460E-18
  -24.02400        9.6084423E-18
  -23.86250        9.6269215E-18
  -23.70100        9.6240545E-18
  -23.53950        9.6119785E-18
  -23.37800        9.6093307E-18
  -23.21650        9.6279042E-18
  -23.05500        9.6641827E-18
  -22.89350        9.7018103E-18
  -22.73200        9.7232566E-18
  -22.57050        9.7223343E-18
  -22.40900        9.7086147E-18
  -22.24750        9.7005654E-18
  -22.08600        9.7123048E-18
  -21.92450        9.7434986E-18
  -21.76300        9.7796621E-18
  -21.60150        9.8026867E-18
  -21.44000        9.8040399E-18
  -21.27850        9.7911194E-18
  -21.11700        9.7821263E-18
  -20.95550        9.7930550E-18
  -20.79400        9.8260992E-18
  -20.63250        9.8678056E-18
  -20.47100        9.8983865E-18
  -20.30950        9.9056020E-18
  -20.14800        9.8933258E-18
  -19.98650        9.8786855E-18
  -19.82500        9.8797766E-18
  -19.66350        9.9027350E-18
  -19.50200        9.9374038E-18
  -19.34050        9.9647487E-18
  -19.17900        9.9707367E-18
  -19.01750        9.9567375E-18
  -18.85600        9.9389523E-18
  -18.69450        9.9371490E-18
  -18.53300        9.9606773E-18
  -18.37150        1.0001717E-17
  -18.21000        1.0040613E-17
  -18.04850        1.0059556E-17
  -17.88700        1.0054921E-17
  -17.72550        1.0039499E-17
  -17.56400        1.0033075E-17
  -17.40250        1.0048111E-17
  -17.24100        1.0080767E-17
  -17.07950        1.0113696E-17
  -16.91800        1.0128629E-17
  -16.75650        1.0119723E-17
  -16.59500        1.0098127E-17
  -16.43350        1.0084420E-17
  -16.27200        1.0094293E-17
  -16.11050        1.0127620E-17
  -15.94900        1.0168711E-17
  -15.78750        1.0197546E-17
  -15.62600        1.0203930E-17
  -15.46450        1.0194451E-17
  -15.30300        1.0187339E-17
  -15.14150        1.0198960E-17
  -14.98000        1.0231710E-17
  -14.81850        1.0272036E-17
  -14.65700        1.0299990E-17
  -14.49550        1.0303463E-17
  -14.33400        1.0286847E-17
  -14.17250        1.0267924E-17
  -14.01100        1.0265196E-17
  -13.84950        1.0284780E-17
  -13.68800        1.0316233E-17
  -13.52650        1.0340294E-17
  -13.36500        1.0342938E-17
  -13.20350        1.0325659E-17
  -13.04200        1.0304575E-17
  -12.88050        1.0298994E-17
  -12.71900        1.0317652E-17
  -12.55750        1.0352528E-17
  -12.39600        1.0384712E-17
  -12.23450        1.0398114E-17
  -12.07300        1.0391146E-17
  -11.91150        1.0377901E-17
  -11.75000        1.0377935E-17
  -11.58850        1.0401946E-17
  -11.42700        1.0443697E-17
  -11.26550        1.0484047E-17
  -11.10400        1.0504295E-17
  -10.94250        1.0499285E-17
  -10.78100        1.0480878E-17
  -10.61950        1.0469288E-17
  -10.45800        1.0478519E-17
  -10.29650        1.0506372E-17
  -10.13500        1.0536199E-17
  -9.973500        1.0549157E-17
  -9.812000        1.0538119E-17
  -9.650500        1.0513256E-17
  -9.489000        1.0495196E-17
  -9.327500        1.0500586E-17
  -9.166000        1.0530361E-17
  -9.004500        1.0569066E-17
  -8.843000        1.0595754E-17
  -8.681500        1.0598708E-17
  -8.520000        1.0583512E-17
  -8.358500        1.0568782E-17
  -8.197000        1.0572626E-17
  -8.035500        1.0599553E-17
  -7.874000        1.0637189E-17
  -7.712500        1.0665165E-17
  -7.551000        1.0669806E-17
  -7.389500        1.0654102E-17
  -7.228000        1.0635770E-17
  -7.066500        1.0634790E-17
  -6.905000        1.0659283E-17
  -6.743500        1.0699819E-17
  -6.582000        1.0736161E-17
  -6.420500        1.0751628E-17
  -6.259000        1.0744749E-17
  -6.097500        1.0729956E-17
  -5.936000        1.0726890E-17
  -5.774500        1.0746088E-17
  -5.613000        1.0781336E-17
  -5.451500        1.0814137E-17
  -5.290000        1.0827041E-17
  -5.128500        1.0816224E-17
  -4.967000        1.0794285E-17
  -4.805500        1.0781321E-17
  -4.644000        1.0790654E-17
  -4.482500        1.0819460E-17
  -4.321000        1.0850950E-17
  -4.159500        1.0866517E-17
  -3.998000        1.0859102E-17
  -3.836500        1.0838214E-17
  -3.675000        1.0823033E-17
  -3.513500        1.0828583E-17
  -3.352000        1.0854922E-17
  -3.190500        1.0887127E-17
  -3.029000        1.0906049E-17
  -2.867500        1.0902135E-17
  -2.706000        1.0882331E-17
  -2.544500        1.0865087E-17
  -2.383000        1.0867049E-17
  -2.221500        1.0891001E-17
  -2.060000        1.0923748E-17
  -1.898500        1.0945499E-17
  -1.737000        1.0944011E-17
  -1.575500        1.0923377E-17
  -1.414000        1.0901149E-17
  -1.252500        1.0895870E-17
  -1.091000        1.0913956E-17
 -0.9295000        1.0945331E-17
 -0.7680000        1.0970908E-17
 -0.6065000        1.0976546E-17
 -0.4450000        1.0963431E-17
 -0.2835000        1.0947405E-17
 -0.1220000        1.0947674E-17
  3.9500002E-02    1.0972972E-17
  0.2010000        1.1015030E-17
  0.3625000        1.1054108E-17
  0.5240000        1.1072645E-17
  0.6855000        1.1067365E-17
  0.8470000        1.1051235E-17
   1.008500        1.1043908E-17
   1.170000        1.1057520E-17
   1.331500        1.1087984E-17
   1.493000        1.1118029E-17
   1.654500        1.1129791E-17
   1.816000        1.1117942E-17
   1.977500        1.1093910E-17
   2.139000        1.1078133E-17
   2.300500        1.1085809E-17
   2.462000        1.1116286E-17
   2.623500        1.1153649E-17
   2.785000        1.1178086E-17
   2.946500        1.1179920E-17
   3.108000        1.1166285E-17
   3.269500        1.1155729E-17
   3.431000        1.1164664E-17
   3.592500        1.1195399E-17
   3.754000        1.1234339E-17
   3.915500        1.1261608E-17
   4.077000        1.1265178E-17
   4.238500        1.1249370E-17
   4.400000        1.1231680E-17
   4.561500        1.1230208E-17
   4.723000        1.1250707E-17
   4.884500        1.1282524E-17
   5.046000        1.1306274E-17
   5.207500        1.1307736E-17
   5.369000        1.1288026E-17
   5.530500        1.1262804E-17
   5.692000        1.1251114E-17
   5.853500        1.1261878E-17
   6.015000        1.1287700E-17
   6.176500        1.1310423E-17
   6.338000        1.1314406E-17
   6.499500        1.1297964E-17
   6.661000        1.1274710E-17
   6.822500        1.1263823E-17
   6.984000        1.1276232E-17
   7.145500        1.1306693E-17
   7.307000        1.1337453E-17
   7.468500        1.1350903E-17
   7.630000        1.1342117E-17
   7.791500        1.1322269E-17
   7.953000        1.1310485E-17
   8.114500        1.1320033E-17
   8.276000        1.1348806E-17
   8.437500        1.1380948E-17
   8.599000        1.1398416E-17
   8.760500        1.1394117E-17
   8.922000        1.1377152E-17
   9.083500        1.1366377E-17
   9.245000        1.1376835E-17
   9.406500        1.1408817E-17
   9.568000        1.1447411E-17
   9.729500        1.1472907E-17
   9.891000        1.1474668E-17
   10.05250        1.1458555E-17
   10.21400        1.1442586E-17
   10.37550        1.1443948E-17
   10.53700        1.1466658E-17
   10.69850        1.1498742E-17
   10.86000        1.1520967E-17
   11.02150        1.1520860E-17
   11.18300        1.1501952E-17
   11.34450        1.1481538E-17
   11.50600        1.1478493E-17
   11.66750        1.1499845E-17
   11.82900        1.1535712E-17
   11.99050        1.1566237E-17
   12.15200        1.1575578E-17
   12.31350        1.1562980E-17
   12.47500        1.1543052E-17
   12.63650        1.1535129E-17
   12.79800        1.1549347E-17
   12.95950        1.1579438E-17
   13.12100        1.1607335E-17
   13.28250        1.1616245E-17
   13.44400        1.1602800E-17
   13.60550        1.1579559E-17
   13.76700        1.1566129E-17
   13.92850        1.1575268E-17
   14.09000        1.1603926E-17
   14.25150        1.1635564E-17
   14.41300        1.1652010E-17
   14.57450        1.1646382E-17
   14.73600        1.1627828E-17
   14.89750        1.1614791E-17
   15.05900        1.1621708E-17
   15.22050        1.1648697E-17
   15.38200        1.1681612E-17
   15.54350        1.1702333E-17
   15.70500        1.1701833E-17
   15.86650        1.1686605E-17
   16.02800        1.1673870E-17
   16.18950        1.1679035E-17
   16.35100        1.1704472E-17
   16.51250        1.1737707E-17
   16.67400        1.1760316E-17
   16.83550        1.1761112E-17
   16.99700        1.1744103E-17
   17.15850        1.1725526E-17
   17.32000        1.1722171E-17
   17.48150        1.1739418E-17
   17.64300        1.1767618E-17
   17.80450        1.1789355E-17
   17.96600        1.1792300E-17
   18.12750        1.1778331E-17
   18.28900        1.1762321E-17
   18.45050        1.1761453E-17
   18.61200        1.1782748E-17
   18.77350        1.1817798E-17
   18.93500        1.1848493E-17
   19.09650        1.1859666E-17
   19.25800        1.1849648E-17
   19.41950        1.1831220E-17
   19.58100        1.1822305E-17
   19.74250        1.1833100E-17
   19.90400        1.1858811E-17
   20.06550        1.1883209E-17
   20.22700        1.1890424E-17
   20.38850        1.1876542E-17
   20.55000        1.1852671E-17
   20.71150        1.1837269E-17
   20.87300        1.1843172E-17
   21.03450        1.1868550E-17
   21.19600        1.1898217E-17
   21.35750        1.1914387E-17
   21.51900        1.1909227E-17
   21.68050        1.1890313E-17
   21.84200        1.1875141E-17
   22.00350        1.1878659E-17
   22.16500        1.1902721E-17
   22.32650        1.1934934E-17
   22.48800        1.1957631E-17
   22.64950        1.1960520E-17
   22.81100        1.1947964E-17
   22.97250        1.1935776E-17
   23.13400        1.1939851E-17
   23.29550        1.1964759E-17
   23.45700        1.2000400E-17
   23.61850        1.2029047E-17
   23.78000        1.2037723E-17
   23.94150        1.2027125E-17
   24.10300        1.2010825E-17
   24.26450        1.2005412E-17
   24.42600        1.2018661E-17
   24.58750        1.2044119E-17
   24.74900        1.2065964E-17
   24.91050        1.2070545E-17
   25.07200        1.2056363E-17
   25.23350        1.2035297E-17
   25.39500        1.2024204E-17
   25.55650        1.2032924E-17
   25.71800        1.2057296E-17
   25.87950        1.2082181E-17
   26.04100        1.2092329E-17
   26.20250        1.2083290E-17
   26.36400        1.2064576E-17
   26.52550        1.2052821E-17
   26.68700        1.2059853E-17
   26.84850        1.2084263E-17
   27.01000        1.2112501E-17
   27.17150        1.2128743E-17
   27.33300        1.2126383E-17
   27.49450        1.2112901E-17
   27.65600        1.2104552E-17
   27.81750        1.2114636E-17
   27.97900        1.2143738E-17
   28.14050        1.2178974E-17
   28.30200        1.2202843E-17
   28.46350        1.2205473E-17
   28.62500        1.2191507E-17
   28.78650        1.2176691E-17
   28.94800        1.2176578E-17
   29.10950        1.2195376E-17
   29.27100        1.2222945E-17
   29.43250        1.2242123E-17
   29.59400        1.2241193E-17
   29.75550        1.2222581E-17
   29.91700        1.2201472E-17
   30.07850        1.2195211E-17
   30.24000        1.2210954E-17
   30.40150        1.2240428E-17
   30.56300        1.2265629E-17
   30.72450        1.2271503E-17
   30.88600        1.2256601E-17
   31.04750        1.2234058E-17
   31.20900        1.2222167E-17
   31.37050        1.2231270E-17
   31.53200        1.2256372E-17
   31.69350        1.2280820E-17
   31.85500        1.2288431E-17
   32.01650        1.2275329E-17
   32.17800        1.2252950E-17
   32.33950        1.2240026E-17
   32.50100        1.2249292E-17
   32.66250        1.2278431E-17
   32.82400        1.2311737E-17
   32.98550        1.2331268E-17
   33.14700        1.2329527E-17
   33.30850        1.2314631E-17
   33.47000        1.2304324E-17
   33.63150        1.2313125E-17
   33.79300        1.2341843E-17
   33.95450        1.2376975E-17
   34.11600        1.2400428E-17
   34.27750        1.2402574E-17
   34.43900        1.2389234E-17
   34.60050        1.2377498E-17
   34.76200        1.2383331E-17
   34.92350        1.2409895E-17
   35.08500        1.2445046E-17
   35.24650        1.2469902E-17
   35.40800        1.2472308E-17
   35.56950        1.2455472E-17
   35.73100        1.2435489E-17
   35.89250        1.2429567E-17
   36.05400        1.2443563E-17
   36.21550        1.2467884E-17
   36.37700        1.2484720E-17
   36.53850        1.2481297E-17
   36.70000        1.2459485E-17
   36.86150        1.2434742E-17
   37.02300        1.2425130E-17
   37.18450        1.2438334E-17
   37.34600        1.2466100E-17
   37.50750        1.2490128E-17
   37.66900        1.2495190E-17
   37.83050        1.2480025E-17
   37.99200        1.2458155E-17
   38.15350        1.2448051E-17
   38.31500        1.2459706E-17
   38.47650        1.2487349E-17
   38.63800        1.2513616E-17
   38.79950        1.2522206E-17
   38.96100        1.2509887E-17
   39.12250        1.2489086E-17
   39.28400        1.2479071E-17
   39.44550        1.2492033E-17
   39.60700        1.2524141E-17
   39.76850        1.2558087E-17
   39.93000        1.2575356E-17
   40.09150        1.2569374E-17
   40.25300        1.2550064E-17
   40.41450        1.2536509E-17
   40.57600        1.2543067E-17
   40.73750        1.2568994E-17
   40.89900        1.2599072E-17
   41.06050        1.2614740E-17
   41.22200        1.2607639E-17
   41.38350        1.2585765E-17
   41.54500        1.2567848E-17
   41.70650        1.2570019E-17
   41.86800        1.2594334E-17
   42.02950        1.2627370E-17
   42.19100        1.2649819E-17
   42.35250        1.2650186E-17
   42.51400        1.2632785E-17
   42.67550        1.2614372E-17
   42.83700        1.2611933E-17
   42.99850        1.2630457E-17
   43.16000        1.2659492E-17
   43.32150        1.2680884E-17
   43.48300        1.2682068E-17
   43.64450        1.2665277E-17
   43.80600        1.2646018E-17
   43.96750        1.2641934E-17
   44.12900        1.2660132E-17
   44.29050        1.2692142E-17
   44.45200        1.2720105E-17
   44.61350        1.2729616E-17
   44.77500        1.2719897E-17
   44.93650        1.2703976E-17
   45.09800        1.2698903E-17
   45.25950        1.2713220E-17
   45.42100        1.2740805E-17
   45.58250        1.2765489E-17
   45.74400        1.2772991E-17
   45.90550        1.2761403E-17
   46.06700        1.2742619E-17
   46.22850        1.2733735E-17
   46.39000        1.2744706E-17
   46.55150        1.2771205E-17
   46.71300        1.2797782E-17
   46.87450        1.2808951E-17
   47.03600        1.2800196E-17
   47.19750        1.2780991E-17
   47.35900        1.2767749E-17
   47.52050        1.2771860E-17
   47.68200        1.2791473E-17
   47.84350        1.2812949E-17
   48.00500        1.2820891E-17
   48.16650        1.2809498E-17
   48.32800        1.2787047E-17
   48.48950        1.2770214E-17
   48.65100        1.2772296E-17
   48.81250        1.2793749E-17
   48.97400        1.2821851E-17
   49.13550        1.2839756E-17
   49.29700        1.2838436E-17
   49.45850        1.2822968E-17
   49.62000        1.2808633E-17
   49.78150        1.2809724E-17
   49.94300        1.2829151E-17
   50.10450        1.2856346E-17
   50.26600        1.2874934E-17
   50.42750        1.2874586E-17
   50.58900        1.2858509E-17
   50.75050        1.2841203E-17
   50.91200        1.2838142E-17
   51.07350        1.2854794E-17
   51.23500        1.2882809E-17
   51.39650        1.2906014E-17
   51.55800        1.2911853E-17
   51.71950        1.2900110E-17
   51.88100        1.2882778E-17
   52.04250        1.2875308E-17
   52.20400        1.2885545E-17
   52.36550        1.2908283E-17
   52.52700        1.2929251E-17
   52.68850        1.2935627E-17
   52.85000        1.2925501E-17
   53.01150        1.2909430E-17
   53.17300        1.2902961E-17
   53.33450        1.2915519E-17
   53.49600        1.2943635E-17
   53.65750        1.2973412E-17
   53.81900        1.2990395E-17
   53.98050        1.2989699E-17
   54.14200        1.2979126E-17
   54.30350        1.2973091E-17
   54.46500        1.2981888E-17
   54.62650        1.3004132E-17
   54.78800        1.3027876E-17
   54.94950        1.3039468E-17
   55.11100        1.3033629E-17
   55.27250        1.3017379E-17
   55.43400        1.3005038E-17
   55.59550        1.3007955E-17
   55.75700        1.3026419E-17
   55.91850        1.3049514E-17
   56.08000        1.3063006E-17
   56.24150        1.3059507E-17
   56.40300        1.3043642E-17
   56.56450        1.3028545E-17
   56.72600        1.3026282E-17
   56.88750        1.3039142E-17
   57.04900        1.3058088E-17
   57.21050        1.3069440E-17
   57.37200        1.3064970E-17
   57.53350        1.3048095E-17
   57.69500        1.3031602E-17
   57.85650        1.3028528E-17
   58.01800        1.3042722E-17
   58.17950        1.3065994E-17
   58.34100        1.3083948E-17
   58.50250        1.3086283E-17
   58.66400        1.3074072E-17
   58.82550        1.3058801E-17
   58.98700        1.3053915E-17
   59.14850        1.3065054E-17
   59.31000        1.3086094E-17
   59.47150        1.3103773E-17
   59.63300        1.3107487E-17
   59.79450        1.3097065E-17
   59.95600        1.3082926E-17
   60.11750        1.3078590E-17
   60.27900        1.3091001E-17
   60.44050        1.3115606E-17
   60.60200        1.3139611E-17
   60.76350        1.3150995E-17
   60.92500        1.3146836E-17
   61.08650        1.3135074E-17
   61.24800        1.3128578E-17
   61.40950        1.3135843E-17
   61.57100        1.3154997E-17
   61.73250        1.3175346E-17
   61.89400        1.3185261E-17
   62.05550        1.3180661E-17
   62.21700        1.3168006E-17
   62.37850        1.3159687E-17
   62.54000        1.3165174E-17
   62.70150        1.3184299E-17
   62.86300        1.3207444E-17
   63.02450        1.3222456E-17
   63.18600        1.3223202E-17
   63.34750        1.3213644E-17
   63.50900        1.3204632E-17
   63.67050        1.3205885E-17
   63.83200        1.3219045E-17
   63.99350        1.3236735E-17
   64.15500        1.3248135E-17
   64.31650        1.3246930E-17
   64.47800        1.3235892E-17
   64.63950        1.3224855E-17
   64.80100        1.3223673E-17
   64.96250        1.3235264E-17
   65.12400        1.3253683E-17
   65.28550        1.3268492E-17
   65.44700        1.3272196E-17
   65.60850        1.3265419E-17
   65.77000        1.3256210E-17
   65.93150        1.3254095E-17
   66.09300        1.3263179E-17
   66.25450        1.3279235E-17
   66.41600        1.3292835E-17
   66.57750        1.3296201E-17
   66.73900        1.3288855E-17
   66.90050        1.3278028E-17
   67.06200        1.3273528E-17
   67.22350        1.3280755E-17
   67.38500        1.3296856E-17
   67.54650        1.3312762E-17
   67.70800        1.3319659E-17
   67.86950        1.3315279E-17
   68.03100        1.3305503E-17
   68.19250        1.3300158E-17
   68.35400        1.3306011E-17
   68.51550        1.3321959E-17
   68.67700        1.3339876E-17
   68.83850        1.3350466E-17
   69.00000        1.3349942E-17
   69.16150        1.3342754E-17
   69.32300        1.3338438E-17
   69.48450        1.3344806E-17
   69.64600        1.3362310E-17
   69.80750        1.3383556E-17
   69.96900        1.3398316E-17
   70.13050        1.3400529E-17
   70.29200        1.3392408E-17
   70.45350        1.3382766E-17
   70.61500        1.3380766E-17
   70.77650        1.3389482E-17
   70.93800        1.3403801E-17
   71.09950        1.3414146E-17
   71.26100        1.3413406E-17
   71.42250        1.3402163E-17
   71.58400        1.3388487E-17
   71.74550        1.3382355E-17
   71.90700        1.3388616E-17
   72.06850        1.3403531E-17
   72.23000        1.3417391E-17
   72.39150        1.3421379E-17
   72.55300        1.3413797E-17
   72.71450        1.3401161E-17
   72.87600        1.3393429E-17
   73.03750        1.3396798E-17
   73.19900        1.3409293E-17
   73.36050        1.3422331E-17
   73.52200        1.3427085E-17
   73.68350        1.3421019E-17
   73.84500        1.3409808E-17
   74.00650        1.3403302E-17
   74.16800        1.3408450E-17
   74.32950        1.3424349E-17
   74.49100        1.3442939E-17
   74.65250        1.3454826E-17
   74.81400        1.3455999E-17
   74.97550        1.3450633E-17
   75.13700        1.3447937E-17
   75.29850        1.3455335E-17
   75.46000        1.3472927E-17
   75.62150        1.3493256E-17
   75.78300        1.3506638E-17
   75.94450        1.3508196E-17
   76.10600        1.3501513E-17
   76.26750        1.3496132E-17
   76.42900        1.3500670E-17
   76.59050        1.3516480E-17
   76.75200        1.3536553E-17
   76.91350        1.3550567E-17
   77.07500        1.3552479E-17
   77.23650        1.3545064E-17
   77.39800        1.3538012E-17
   77.55950        1.3540882E-17
   77.72100        1.3556079E-17
   77.88250        1.3576995E-17
   78.04400        1.3592713E-17
   78.20550        1.3595890E-17
   78.36700        1.3588080E-17
   78.52850        1.3578616E-17
   78.69000        1.3577844E-17
   78.85150        1.3589583E-17
   79.01300        1.3608294E-17
   79.17450        1.3622984E-17
   79.33600        1.3625069E-17
   79.49750        1.3614545E-17
   79.65900        1.3600059E-17
   79.82050        1.3592813E-17
   79.98200        1.3598614E-17
   80.14350        1.3613756E-17
   80.30500        1.3627726E-17
   80.46650        1.3630829E-17
   80.62800        1.3621253E-17
   80.78950        1.3606463E-17
   80.95100        1.3597846E-17
   81.11250        1.3602482E-17
   81.27400        1.3617980E-17
   81.43550        1.3634157E-17
   81.59700        1.3640362E-17
   81.75850        1.3633133E-17
   81.92000        1.3618599E-17
   82.08150        1.3607925E-17
   82.24300        1.3609136E-17
   82.40450        1.3621328E-17
   82.56600        1.3635469E-17
   82.72750        1.3641125E-17
   82.88900        1.3634162E-17
   83.05050        1.3619817E-17
   83.21200        1.3608958E-17
   83.37350        1.3610300E-17
   83.53500        1.3624208E-17
   83.69650        1.3642554E-17
   83.85800        1.3654673E-17
   84.01950        1.3655085E-17
   84.18100        1.3647368E-17
   84.34250        1.3641380E-17
   84.50400        1.3645873E-17
   84.66550        1.3661885E-17
   84.82700        1.3681767E-17
   84.98850        1.3694602E-17
   85.15000        1.3694121E-17
   85.31150        1.3683341E-17
   85.47300        1.3672472E-17
   85.63450        1.3671558E-17
   85.79600        1.3683208E-17
   85.95750        1.3700775E-17
   86.11900        1.3713345E-17
   86.28050        1.3713908E-17
   86.44200        1.3704675E-17
   86.60350        1.3695595E-17
   86.76500        1.3697127E-17
   86.92650        1.3712515E-17
   87.08800        1.3735256E-17
   87.24950        1.3753669E-17
   87.41100        1.3759275E-17
   87.57250        1.3752888E-17
   87.73400        1.3743962E-17
   87.89550        1.3743617E-17
   88.05700        1.3756453E-17
   88.21850        1.3777061E-17
   88.38000        1.3793844E-17
   88.54150        1.3797388E-17
   88.70300        1.3787358E-17
   88.86450        1.3772885E-17
   89.02600        1.3766110E-17
   89.18750        1.3773527E-17
   89.34900        1.3791366E-17
   89.51050        1.3808420E-17
   89.67200        1.3814263E-17
   89.83350        1.3806917E-17
   89.99500        1.3794363E-17
   90.15650        1.3788776E-17
   90.31800        1.3797626E-17
   90.47950        1.3818094E-17
   90.64100        1.3838918E-17
   90.80250        1.3848369E-17
   90.96400        1.3842626E-17
   91.12550        1.3828415E-17
   91.28700        1.3818014E-17
   91.44850        1.3820272E-17
   91.61000        1.3834210E-17
   91.77150        1.3849880E-17
   91.93300        1.3855814E-17
   92.09450        1.3847612E-17
   92.25600        1.3831347E-17
   92.41750        1.3819271E-17
   92.57900        1.3820976E-17
   92.74050        1.3836464E-17
   92.90200        1.3856202E-17
   93.06350        1.3868094E-17
   93.22500        1.3866268E-17
   93.38650        1.3855240E-17
   93.54800        1.3846464E-17
   93.70950        1.3849815E-17
   93.87100        1.3866234E-17
   94.03250        1.3886920E-17
   94.19400        1.3899706E-17
   94.35550        1.3897968E-17
   94.51700        1.3885550E-17
   94.67850        1.3874022E-17
   94.84000        1.3874237E-17
   95.00150        1.3888341E-17
   95.16300        1.3908145E-17
   95.32450        1.3921116E-17
   95.48600        1.3919646E-17
   95.64750        1.3906810E-17
   95.80900        1.3894283E-17
   95.97050        1.3893860E-17
   96.13200        1.3908767E-17
   96.29350        1.3931209E-17
   96.45500        1.3947994E-17
   96.61650        1.3950169E-17
   96.77800        1.3939529E-17
   96.93950        1.3927238E-17
   97.10100        1.3925531E-17
   97.26250        1.3938584E-17
   97.42400        1.3959275E-17
   97.58550        1.3974247E-17
   97.74700        1.3973623E-17
   97.90850        1.3958312E-17
   98.07000        1.3939543E-17
   98.23150        1.3930921E-17
   98.39300        1.3938774E-17
   98.55450        1.3957763E-17
   98.71600        1.3974925E-17
   98.87750        1.3979223E-17
   99.03900        1.3969621E-17
   99.20050        1.3955831E-17
   99.36200        1.3951119E-17
   99.52350        1.3962393E-17
   99.68500        1.3984846E-17
   99.84650        1.4005142E-17
   100.0080        1.4010921E-17
   100.1695        1.3999675E-17
   100.3310        1.3980524E-17
   100.4925        1.3967590E-17
   100.6540        1.3969784E-17
   100.8155        1.3984504E-17
   100.9770        1.3999820E-17
   101.1385        1.4003534E-17
   101.3000        1.3992410E-17
   101.4615        1.3974763E-17
   101.6230        1.3964447E-17
   101.7845        1.3970703E-17
   101.9460        1.3991353E-17
   102.1075        1.4014331E-17
   102.2690        1.4026411E-17
   102.4305        1.4022758E-17
   102.5920        1.4010297E-17
   102.7535        1.4002467E-17
   102.9150        1.4009212E-17
   103.0765        1.4029551E-17
   103.2380        1.4052230E-17
   103.3995        1.4063980E-17
   103.5610        1.4059303E-17
   103.7225        1.4044595E-17
   103.8840        1.4033538E-17
   104.0455        1.4037093E-17
   104.2070        1.4055451E-17
   104.3685        1.4077830E-17
   104.5300        1.4090398E-17
   104.6915        1.4086519E-17
   104.8530        1.4071800E-17
   105.0145        1.4060127E-17
   105.1760        1.4063525E-17
   105.3375        1.4083301E-17
   105.4990        1.4109003E-17
   105.6605        1.4125993E-17
   105.8220        1.4126139E-17
   105.9835        1.4113728E-17
   106.1450        1.4102248E-17
   106.3065        1.4104338E-17
   106.4680        1.4122269E-17
   106.6295        1.4146047E-17
   106.7910        1.4160561E-17
   106.9525        1.4156607E-17
   107.1140        1.4137668E-17
   107.2755        1.4117503E-17
   107.4370        1.4110293E-17
   107.5985        1.4120494E-17
   107.7600        1.4139801E-17
   107.9215        1.4153399E-17
   108.0830        1.4150981E-17
   108.2445        1.4134388E-17
   108.4060        1.4116343E-17
   108.5675        1.4111109E-17
   108.7290        1.4123937E-17
   108.8905        1.4147050E-17
   109.0520        1.4165131E-17
   109.2135        1.4166318E-17
   109.3750        1.4150756E-17
   109.5365        1.4130396E-17
   109.6980        1.4120233E-17
   109.8595        1.4127335E-17
   110.0210        1.4145776E-17
   110.1825        1.4161193E-17
   110.3440        1.4161590E-17
   110.5055        1.4146380E-17
   110.6670        1.4126954E-17
   110.8285        1.4118353E-17
   110.9900        1.4128179E-17
   111.1515        1.4150938E-17
   111.3130        1.4172024E-17
   111.4745        1.4178389E-17
   111.6360        1.4168007E-17
   111.7975        1.4151164E-17
   111.9590        1.4142611E-17
   112.1205        1.4150511E-17
   112.2820        1.4170365E-17
   112.4435        1.4188419E-17
   112.6050        1.4191973E-17
   112.7665        1.4178910E-17
   112.9280        1.4159405E-17
   113.0895        1.4148550E-17
   113.2510        1.4155333E-17
   113.4125        1.4176115E-17
   113.5740        1.4197414E-17
   113.7355        1.4205912E-17
   113.8970        1.4198307E-17
   114.0585        1.4183714E-17
   114.2200        1.4176893E-17
   114.3815        1.4187259E-17
   114.5430        1.4211810E-17
   114.7045        1.4237171E-17
   114.8660        1.4249311E-17
   115.0275        1.4243787E-17
   115.1890        1.4228933E-17
   115.3505        1.4219619E-17
   115.5120        1.4226178E-17
   115.6735        1.4246700E-17
   115.8350        1.4268421E-17
   115.9965        1.4277136E-17
   116.1580        1.4267694E-17
   116.3195        1.4247830E-17
   116.4810        1.4232544E-17
   116.6425        1.4233227E-17
   116.8040        1.4249559E-17
   116.9655        1.4270048E-17
   117.1270        1.4280716E-17
   117.2885        1.4275405E-17
   117.4500        1.4260170E-17
   117.6115        1.4248648E-17
   117.7730        1.4251923E-17
   117.9345        1.4270388E-17
   118.0960        1.4293449E-17
   118.2575        1.4307207E-17
   118.4190        1.4304413E-17
   118.5805        1.4289489E-17
   118.7420        1.4275025E-17