  -27.90000       -1.8221149E-18
  -27.73850       -1.8252946E-18
  -27.57700       -1.8298071E-18
  -27.41550       -1.8332804E-18
  -27.25400       -1.8344140E-18
  -27.09250       -1.8338183E-18
  -26.93100       -1.8335037E-18
  -26.76950       -1.8353761E-18
  -26.60800       -1.8398058E-18
  -26.44650       -1.8452919E-18
  -26.28500       -1.8494809E-18
  -26.12350       -1.8508369E-18
  -25.96200       -1.8497423E-18
  -25.80050       -1.8482400E-18
  -25.63900       -1.8485876E-18
  -25.47750       -1.8516659E-18
  -25.31600       -1.8563842E-18
  -25.15450       -1.8605017E-18
  -24.99300       -1.8622516E-18
  -24.83150       -1.8615977E-18
  -24.67000       -1.8602306E-18
  -24.50850       -1.8603273E-18
  -24.34700       -1.8629875E-18
  -24.18550       -1.8674539E-18
  -24.02400       -1.8716678E-18
  -23.86250       -1.8737498E-18
  -23.70100       -1.8733430E-18
  -23.53950       -1.8718632E-18
  -23.37800       -1.8714781E-18
  -23.21650       -1.8735446E-18
  -23.05500       -1.8776286E-18
  -22.89350       -1.8818193E-18
  -22.73200       -1.8841127E-18
  -22.57050       -1.8838677E-18
  -22.40900       -1.8822609E-18
  -22.24750       -1.8814066E-18
  -22.08600       -1.8828041E-18
  -21.92450       -1.8862582E-18
  -21.76300       -1.8900630E-18
  -21.60150       -1.8922944E-18
  -21.44000       -1.8922367E-18
  -21.27850       -1.8908873E-18
  -21.11700       -1.8902039E-18
  -20.95550       -1.8916754E-18
  -20.79400       -1.8952650E-18
  -20.63250       -1.8994718E-18
  -20.47100       -1.9024056E-18
  -20.30950       -1.9030889E-18
  -20.14800       -1.9020737E-18
  -19.98650       -1.9009831E-18
  -19.82500       -1.9013534E-18
  -19.66350       -1.9035806E-18
  -19.50200       -1.9066945E-18
  -19.34050       -1.9090803E-18
  -19.17900       -1.9096306E-18
  -19.01750       -1.9085414E-18
  -18.85600       -1.9071970E-18
  -18.69450       -1.9072293E-18
  -18.53300       -1.9093932E-18
  -18.37150       -1.9130467E-18
  -18.21000       -1.9165891E-18
  -18.04850       -1.9185544E-18
  -17.88700       -1.9185950E-18
  -17.72550       -1.9176547E-18
  -17.56400       -1.9172446E-18
  -17.40250       -1.9183458E-18
  -17.24100       -1.9207487E-18
  -17.07950       -1.9232625E-18
  -16.91800       -1.9246034E-18
  -16.75650       -1.9243120E-18
  -16.59500       -1.9230609E-18
  -16.43350       -1.9221827E-18
  -16.27200       -1.9227929E-18
  -16.11050       -1.9251076E-18
  -15.94900       -1.9283844E-18
  -15.78750       -1.9314696E-18
  -15.62600       -1.9335684E-18
  -15.46450       -1.9347353E-18
  -15.30300       -1.9357852E-18
  -15.14150       -1.9377057E-18
  -14.98000       -1.9409557E-18
  -14.81850       -1.9451109E-18
  -14.65700       -1.9490975E-18
  -14.49550       -1.9518714E-18
  -14.33400       -1.9530934E-18
  -14.17250       -1.9533202E-18
  -14.01100       -1.9535783E-18
  -13.84950       -1.9546096E-18
  -13.68800       -1.9563299E-18
  -13.52650       -1.9578947E-18
  -13.36500       -1.9583052E-18
  -13.20350       -1.9571271E-18
  -13.04200       -1.9548058E-18
  -12.88050       -1.9523820E-18
  -12.71900       -1.9508273E-18
  -12.55750       -1.9504487E-18
  -12.39600       -1.9507680E-18
  -12.23450       -1.9509127E-18
  -12.07300       -1.9502501E-18
  -11.91150       -1.9488586E-18
  -11.75000       -1.9475192E-18
  -11.58850       -1.9472349E-18
  -11.42700       -1.9485635E-18
  -11.26550       -1.9511923E-18
  -11.10400       -1.9540852E-18
  -10.94250       -1.9561465E-18
  -10.78100       -1.9569875E-18
  -10.61950       -1.9572396E-18
  -10.45800       -1.9581346E-18
  -10.29650       -1.9606199E-18
  -10.13500       -1.9646239E-18
  -9.973500       -1.9690495E-18
  -9.812000       -1.9725267E-18
  -9.650500       -1.9743962E-18
  -9.489000       -1.9751799E-18
  -9.327500       -1.9761810E-18
  -9.166000       -1.9784953E-18
  -9.004500       -1.9821770E-18
  -8.843000       -1.9861649E-18
  -8.681500       -1.9890222E-18
  -8.520000       -1.9899428E-18
  -8.358500       -1.9892986E-18
  -8.197000       -1.9883617E-18
  -8.035500       -1.9884088E-18
  -7.874000       -1.9898357E-18
  -7.712500       -1.9918921E-18
  -7.551000       -1.9932191E-18
  -7.389500       -1.9928226E-18
  -7.228000       -1.9908045E-18
  -7.066500       -1.9883391E-18
  -6.905000       -1.9868926E-18
  -6.743500       -1.9872268E-18
  -6.582000       -1.9888859E-18
  -6.420500       -1.9905491E-18
  -6.259000       -1.9910167E-18
  -6.097500       -1.9901109E-18
  -5.936000       -1.9888272E-18
  -5.774500       -1.9886137E-18
  -5.613000       -1.9903049E-18
  -5.451500       -1.9934958E-18
  -5.290000       -1.9968146E-18
  -5.128500       -1.9988755E-18
  -4.967000       -1.9992126E-18
  -4.805500       -1.9985389E-18
  -4.644000       -1.9981925E-18
  -4.482500       -1.9991880E-18
  -4.321000       -2.0015591E-18
  -4.159500       -2.0044063E-18
  -3.998000       -2.0065762E-18
  -3.836500       -2.0074782E-18
  -3.675000       -2.0074886E-18
  -3.513500       -2.0077040E-18
  -3.352000       -2.0092120E-18
  -3.190500       -2.0123687E-18
  -3.029000       -2.0165383E-18
  -2.867500       -2.0204786E-18
  -2.706000       -2.0231231E-18
  -2.544500       -2.0242551E-18
  -2.383000       -2.0246025E-18
  -2.221500       -2.0252787E-18
  -2.060000       -2.0269600E-18
  -1.898500       -2.0293803E-18
  -1.737000       -2.0315080E-18
  -1.575500       -2.0322893E-18
  -1.414000       -2.0314019E-18
  -1.252500       -2.0294887E-18
  -1.091000       -2.0276920E-18
 -0.9295000       -2.0268531E-18
 -0.7680000       -2.0269496E-18
 -0.6065000       -2.0271715E-18
 -0.4450000       -2.0265538E-18
 -0.2835000       -2.0246976E-18
 -0.1220000       -2.0220780E-18
  3.9500002E-02   -2.0197594E-18
  0.2010000       -2.0187256E-18
  0.3625000       -2.0192908E-18
  0.5240000       -2.0209571E-18
  0.6855000       -2.0228077E-18
  0.8470000       -2.0241575E-18
   1.008500       -2.0250343E-18
   1.170000       -2.0261421E-18
   1.331500       -2.0283236E-18
   1.493000       -2.0318712E-18
   1.654500       -2.0361717E-18
   1.816000       -2.0399775E-18
   1.977500       -2.0421702E-18
   2.139000       -2.0425182E-18
   2.300500       -2.0418771E-18
   2.462000       -2.0416455E-18
   2.623500       -2.0428073E-18
   2.785000       -2.0452454E-18
   2.946500       -2.0478225E-18
   3.108000       -2.0491958E-18
   3.269500       -2.0488015E-18
   3.431000       -2.0472937E-18
   3.592500       -2.0461202E-18
   3.754000       -2.0464996E-18
   3.915500       -2.0485237E-18
   4.077000       -2.0510214E-18
   4.238500       -2.0523182E-18
   4.400000       -2.0513912E-18
   4.561500       -2.0486389E-18
   4.723000       -2.0457109E-18
   4.884500       -2.0444867E-18
   5.046000       -2.0458687E-18
   5.207500       -2.0492016E-18
   5.369000       -2.0527289E-18
   5.530500       -2.0548091E-18
   5.692000       -2.0550605E-18
   5.853500       -2.0546281E-18
   6.015000       -2.0553490E-18
   6.176500       -2.0583922E-18
   6.338000       -2.0633354E-18
   6.499500       -2.0683631E-18
   6.661000       -2.0714776E-18
   6.822500       -2.0718761E-18
   6.984000       -2.0705102E-18
   7.145500       -2.0694063E-18
   7.307000       -2.0702186E-18
   7.468500       -2.0730565E-18
   7.630000       -2.0764341E-18
   7.791500       -2.0783738E-18
   7.953000       -2.0778477E-18
   8.114500       -2.0754996E-18
   8.276000       -2.0731404E-18
   8.437500       -2.0724104E-18
   8.599000       -2.0735875E-18
   8.760500       -2.0754237E-18
   8.922000       -2.0761173E-18
   9.083500       -2.0747075E-18
   9.245000       -2.0718542E-18
   9.406500       -2.0694241E-18
   9.568000       -2.0691824E-18
   9.729500       -2.0715392E-18
   9.891000       -2.0752504E-18
   10.05250       -2.0782894E-18
   10.21400       -2.0792744E-18
   10.37550       -2.0784199E-18
   10.53700       -2.0773285E-18
   10.69850       -2.0777499E-18
   10.86000       -2.0802087E-18
   11.02150       -2.0835182E-18
   11.18300       -2.0855798E-18
   11.34450       -2.0849174E-18
   11.50600       -2.0818411E-18
   11.66750       -2.0783666E-18
   11.82900       -2.0768989E-18
   11.99050       -2.0785870E-18
   12.15200       -2.0825221E-18
   12.31350       -2.0863931E-18
   12.47500       -2.0881447E-18
   12.63650       -2.0874440E-18
   12.79800       -2.0858879E-18
   12.95950       -2.0858000E-18
   13.12100       -2.0884987E-18
   13.28250       -2.0933013E-18
   13.44400       -2.0979699E-18
   13.60550       -2.1002782E-18
   13.76700       -2.0995715E-18
   13.92850       -2.0972145E-18
   14.09000       -2.0956211E-18
   14.25150       -2.0965788E-18
   14.41300       -2.1000497E-18
   14.57450       -2.1042695E-18
   14.73600       -2.1070207E-18
   14.89750       -2.1071620E-18
   15.05900       -2.1053672E-18
   15.22050       -2.1035981E-18
   15.38200       -2.1037159E-18
   15.54350       -2.1061995E-18
   15.70500       -2.1098625E-18
   15.86650       -2.1127293E-18
   16.02800       -2.1134450E-18
   16.18950       -2.1122096E-18
   16.35100       -2.1106008E-18
   16.51250       -2.1104330E-18
   16.67400       -2.1124826E-18
   16.83550       -2.1159673E-18
   16.99700       -2.1191377E-18
   17.15850       -2.1205381E-18
   17.32000       -2.1200166E-18
   17.48150       -2.1187688E-18
   17.64300       -2.1184079E-18
   17.80450       -2.1197874E-18
   17.96600       -2.1224220E-18
   18.12750       -2.1248946E-18
   18.28900       -2.1258980E-18
   18.45050       -2.1251395E-18
   18.61200       -2.1234841E-18
   18.77350       -2.1222948E-18
   18.93500       -2.1224677E-18
   19.09650       -2.1238518E-18
   19.25800       -2.1254054E-18
   19.41950       -2.1259332E-18
   19.58100       -2.1248775E-18
   19.74250       -2.1226524E-18
   19.90400       -2.1203472E-18
   20.06550       -2.1190144E-18
   20.22700       -2.1189931E-18
   20.38850       -2.1196859E-18
   20.55000       -2.1199568E-18
   20.71150       -2.1189222E-18
   20.87300       -2.1166129E-18
   21.03450       -2.1140511E-18
   21.19600       -2.1126360E-18
   21.35750       -2.1132293E-18
   21.51900       -2.1155707E-18
   21.68050       -2.1184567E-18
   21.84200       -2.1205976E-18
   22.00350       -2.1215400E-18
   22.16500       -2.1219960E-18
   22.32650       -2.1233137E-18
   22.48800       -2.1264781E-18
   22.64950       -2.1313518E-18
   22.81100       -2.1367099E-18
   22.97250       -2.1410054E-18
   23.13400       -2.1433368E-18
   23.29550       -2.1439725E-18
   23.45700       -2.1441202E-18
   23.61850       -2.1450989E-18
   23.78000       -2.1474564E-18
   23.94150       -2.1505834E-18
   24.10300       -2.1530984E-18
   24.26450       -2.1537841E-18
   24.42600       -2.1524778E-18
   24.58750       -2.1503056E-18
   24.74900       -2.1490247E-18
   24.91050       -2.1498383E-18
   25.07200       -2.1524857E-18
   25.23350       -2.1553082E-18
   25.39500       -2.1563565E-18
   25.55650       -2.1547983E-18
   25.71800       -2.1515886E-18
   25.87950       -2.1488440E-18
   26.04100       -2.1483357E-18
   26.20250       -2.1502132E-18
   26.36400       -2.1529094E-18
   26.52550       -2.1543253E-18
   26.68700       -2.1534102E-18
   26.84850       -2.1509682E-18
   27.01000       -2.1491006E-18
   27.17150       -2.1496886E-18
   27.33300       -2.1530302E-18
   27.49450       -2.1576074E-18
   27.65600       -2.1611278E-18
   27.81750       -2.1620865E-18
   27.97900       -2.1607484E-18
   28.14050       -2.1589044E-18
   28.30200       -2.1585838E-18
   28.46350       -2.1606313E-18
   28.62500       -2.1641249E-18
   28.78650       -2.1670544E-18
   28.94800       -2.1677738E-18
   29.10950       -2.1662036E-18
   29.27100       -2.1639008E-18
   29.43250       -2.1629263E-18
   29.59400       -2.1643280E-18
   29.75550       -2.1673470E-18
   29.91700       -2.1699487E-18
   30.07850       -2.1703182E-18
   30.24000       -2.1682143E-18
   30.40150       -2.1651711E-18
   30.56300       -2.1633625E-18
   30.72450       -2.1639901E-18
   30.88600       -2.1664268E-18
   31.04750       -2.1687592E-18
   31.20900       -2.1693163E-18
   31.37050       -2.1679955E-18
   31.53200       -2.1663666E-18
   31.69350       -2.1664599E-18
   31.85500       -2.1691757E-18
   32.01650       -2.1735265E-18
   32.17800       -2.1772994E-18
   32.33950       -2.1786467E-18
   32.50100       -2.1773964E-18
   32.66250       -2.1751211E-18
   32.82400       -2.1739281E-18
   32.98550       -2.1749143E-18
   33.14700       -2.1774173E-18
   33.30850       -2.1795915E-18
   33.47000       -2.1798461E-18
   33.63150       -2.1780881E-18
   33.79300       -2.1758701E-18
   33.95450       -2.1753434E-18
   34.11600       -2.1777639E-18
   34.27750       -2.1825938E-18
   34.43900       -2.1878327E-18
   34.60050       -2.1913373E-18
   34.76200       -2.1922232E-18
   34.92350       -2.1913764E-18
   35.08500       -2.1907289E-18
   35.24650       -2.1918102E-18
   35.40800       -2.1946131E-18
   35.56950       -2.1976119E-18
   35.73100       -2.1989244E-18
   35.89250       -2.1977606E-18
   36.05400       -2.1950524E-18
   36.21550       -2.1927758E-18
   36.37700       -2.1924885E-18
   36.53850       -2.1942155E-18
   36.70000       -2.1965326E-18
   36.86150       -2.1977287E-18
   37.02300       -2.1971032E-18
   37.18450       -2.1953752E-18
   37.34600       -2.1939574E-18
   37.50750       -2.1937547E-18
   37.66900       -2.1945013E-18
   37.83050       -2.1951272E-18
   37.99200       -2.1947647E-18
   38.15350       -2.1935122E-18
   38.31500       -2.1923537E-18
   38.47650       -2.1923512E-18
   38.63800       -2.1938060E-18
   38.79950       -2.1960448E-18
   38.96100       -2.1979432E-18
   39.12250       -2.1987594E-18
   39.28400       -2.1986481E-18
   39.44550       -2.1985121E-18
   39.60700       -2.1993057E-18
   39.76850       -2.2012912E-18
   39.93000       -2.2037696E-18
   40.09150       -2.2055129E-18
   40.25300       -2.2056558E-18
   40.41450       -2.2044425E-18
   40.57600       -2.2032373E-18
   40.73750       -2.2036739E-18
   40.89900       -2.2064507E-18
   41.06050       -2.2106778E-18
   41.22200       -2.2143611E-18
   41.38350       -2.2157793E-18
   41.54500       -2.2147432E-18
   41.70650       -2.2127263E-18
   41.86800       -2.2117000E-18
   42.02950       -2.2125712E-18
   42.19100       -2.2144756E-18
   42.35250       -2.2155052E-18
   42.51400       -2.2142847E-18
   42.67550       -2.2111286E-18
   42.83700       -2.2078586E-18
   42.99850       -2.2064747E-18
   43.16000       -2.2077496E-18
   43.32150       -2.2108100E-18
   43.48300       -2.2139293E-18
   43.64450       -2.2158169E-18
   43.80600       -2.2164170E-18
   43.96750       -2.2167154E-18
   44.12900       -2.2178271E-18
   44.29050       -2.2200839E-18
   44.45200       -2.2227648E-18
   44.61350       -2.2245991E-18
   44.77500       -2.2246832E-18
   44.93650       -2.2231763E-18
   45.09800       -2.2212906E-18
   45.25950       -2.2205091E-18
   45.42100       -2.2215207E-18
   45.58250       -2.2236426E-18
   45.74400       -2.2252453E-18
   45.90550       -2.2249920E-18
   46.06700       -2.2230012E-18
   46.22850       -2.2209473E-18
   46.39000       -2.2208664E-18
   46.55150       -2.2235014E-18
   46.71300       -2.2275316E-18
   46.87450       -2.2304282E-18
   47.03600       -2.2303972E-18
   47.19750       -2.2278861E-18
   47.35900       -2.2254056E-18
   47.52050       -2.2257038E-18
   47.68200       -2.2296759E-18
   47.84350       -2.2356246E-18
   48.00500       -2.2404528E-18
   48.16650       -2.2418929E-18
   48.32800       -2.2400917E-18
   48.48950       -2.2374214E-18
   48.65100       -2.2367098E-18
   48.81250       -2.2392021E-18
   48.97400       -2.2436933E-18
   49.13550       -2.2473740E-18
   49.29700       -2.2477628E-18
   49.45850       -2.2444094E-18
   49.62000       -2.2392433E-18
   49.78150       -2.2353328E-18
   49.94300       -2.2348433E-18
   50.10450       -2.2375529E-18
   50.26600       -2.2409613E-18
   50.42750       -2.2420118E-18
   50.58900       -2.2393041E-18
   50.75050       -2.2342016E-18
   50.91200       -2.2299470E-18
   51.07350       -2.2293225E-18
   51.23500       -2.2325470E-18
   51.39650       -2.2370593E-18
   51.55800       -2.2394312E-18
   51.71950       -2.2380203E-18
   51.88100       -2.2343044E-18
   52.04250       -2.2318119E-18
   52.20400       -2.2334317E-18
   52.36550       -2.2391703E-18
   52.52700       -2.2460989E-18
   52.68850       -2.2505287E-18
   52.85000       -2.2507376E-18
   53.01150       -2.2481979E-18
   53.17300       -2.2464000E-18
   53.33450       -2.2482060E-18
   53.49600       -2.2536867E-18
   53.65750       -2.2600003E-18
   53.81900       -2.2633885E-18
   53.98050       -2.2618511E-18
   54.14200       -2.2566269E-18
   54.30350       -2.2514194E-18
   54.46500       -2.2498624E-18
   54.62650       -2.2529335E-18
   54.78800       -2.2581489E-18
   54.94950       -2.2612215E-18
   55.11100       -2.2591365E-18
   55.27250       -2.2525239E-18
   55.43400       -2.2454881E-18
   55.59550       -2.2428320E-18
   55.75700       -2.2465541E-18
   55.91850       -2.2542175E-18
   56.08000       -2.2605454E-18
   56.24150       -2.2612297E-18
   56.40300       -2.2561597E-18
   56.56450       -2.2495981E-18
   56.72600       -2.2470760E-18
   56.88750       -2.2512725E-18
   57.04900       -2.2599650E-18
   57.21050       -2.2676137E-18
   57.37200       -2.2694083E-18
   57.53350       -2.2647744E-18
   57.69500       -2.2577686E-18
   57.85650       -2.2541207E-18
   58.01800       -2.2571170E-18
   58.17950       -2.2652986E-18
   58.34100       -2.2735644E-18
   58.50250       -2.2768330E-18
   58.66400       -2.2736507E-18
   58.82550       -2.2671974E-18
   58.98700       -2.2630018E-18
   59.14850       -2.2649630E-18
   59.31000       -2.2724821E-18
   59.47150       -2.2807801E-18
   59.63300       -2.2842419E-18
   59.79450       -2.2804766E-18
   59.95600       -2.2721512E-18
   60.11750       -2.2651768E-18
   60.27900       -2.2644299E-18
   60.44050       -2.2701019E-18
   60.60200       -2.2774499E-18
   60.76350       -2.2802619E-18
   60.92500       -2.2755313E-18
   61.08650       -2.2658367E-18
   61.24800       -2.2575413E-18
   61.40950       -2.2561053E-18
   61.57100       -2.2619951E-18
   61.73250       -2.2702869E-18
   61.89400       -2.2742948E-18
   62.05550       -2.2705312E-18
   62.21700       -2.2613244E-18
   62.37850       -2.2531664E-18
   62.54000       -2.2520240E-18
   62.70150       -2.2590422E-18
   62.86300       -2.2697319E-18
   63.02450       -2.2771912E-18
   63.18600       -2.2770099E-18
   63.34750       -2.2703860E-18
   63.50900       -2.2632580E-18
   63.67050       -2.2620664E-18
   63.83200       -2.2691175E-18
   63.99350       -2.2808279E-18
   64.15500       -2.2901618E-18
   64.31650       -2.2916032E-18
   64.47800       -2.2851561E-18
   64.63950       -2.2764676E-18
   64.80100       -2.2728636E-18
   64.96250       -2.2780751E-18
   65.12400       -2.2894651E-18
   65.28550       -2.2998551E-18
   65.44700       -2.3027017E-18
   65.60850       -2.2968727E-18
   65.77000       -2.2874735E-18
   65.93150       -2.2820792E-18
   66.09300       -2.2851359E-18
   66.25450       -2.2946697E-18
   66.41600       -2.3037253E-18
   66.57750       -2.3054452E-18
   66.73900       -2.2980417E-18
   66.90050       -2.2860526E-18
   67.06200       -2.2770305E-18
   67.22350       -2.2761335E-18
   67.38500       -2.2825340E-18
   67.54650       -2.2901966E-18
   67.70800       -2.2923671E-18
   67.86950       -2.2865160E-18
   68.03100       -2.2761955E-18
   68.19250       -2.2685242E-18
   68.35400       -2.2691169E-18
   68.51550       -2.2780556E-18
   68.67700       -2.2897774E-18
   68.83850       -2.2969782E-18
   69.00000       -2.2957802E-18
   69.16150       -2.2884742E-18
   69.32300       -2.2818400E-18
   69.48450       -2.2822087E-18
   69.64600       -2.2908120E-18
   69.80750       -2.3028088E-18
   69.96900       -2.3107295E-18
   70.13050       -2.3098777E-18
   70.29200       -2.3017595E-18
   70.45350       -2.2930067E-18
   70.61500       -2.2905599E-18
   70.77650       -2.2966058E-18
   70.93800       -2.3069767E-18
   71.09950       -2.3141805E-18
   71.26100       -2.3128266E-18
   71.42250       -2.3035005E-18
   71.58400       -2.2923030E-18
   71.74550       -2.2864573E-18
   71.90700       -2.2891924E-18
   72.06850       -2.2975607E-18
   72.23000       -2.3046991E-18
   72.39150       -2.3048302E-18
   72.55300       -2.2974149E-18
   72.71450       -2.2875146E-18
   72.87600       -2.2821770E-18
   73.03750       -2.2854413E-18
   73.19900       -2.2954856E-18
   73.36050       -2.3058919E-18
   73.52200       -2.3101297E-18
   73.68350       -2.3061177E-18
   73.84500       -2.2976559E-18
   74.00650       -2.2916991E-18
   74.16800       -2.2933723E-18
   74.32950       -2.3022730E-18
   74.49100       -2.3127250E-18
   74.65250       -2.3178463E-18
   74.81400       -2.3145241E-18
   74.97550       -2.3056985E-18
   75.13700       -2.2982543E-18
   75.29850       -2.2980295E-18
   75.46000       -2.3055643E-18
   75.62150       -2.3156888E-18
   75.78300       -2.3212514E-18
   75.94450       -2.3182363E-18
   76.10600       -2.3085606E-18
   76.26750       -2.2985980E-18
   76.42900       -2.2945972E-18
   76.59050       -2.2983534E-18
   76.75200       -2.3061630E-18
   76.91350       -2.3116662E-18
   77.07500       -2.3104507E-18
   77.23650       -2.3031630E-18
   77.39800       -2.2950161E-18
   77.55950       -2.2921274E-18
   77.72100       -2.2972586E-18
   77.88250       -2.3078784E-18
   78.04400       -2.3178538E-18
   78.20550       -2.3216052E-18
   78.36700       -2.3178959E-18
   78.52850       -2.3106269E-18
   78.69000       -2.3060505E-18
   78.85150       -2.3083100E-18
   79.01300       -2.3164618E-18
   79.17450       -2.3251656E-18
   79.33600       -2.3285866E-18
   79.49750       -2.3246970E-18
   79.65900       -2.3167997E-18
   79.82050       -2.3111387E-18
   79.98200       -2.3123433E-18
   80.14350       -2.3200749E-18
   80.30500       -2.3293181E-18
   80.46650       -2.3340500E-18
   80.62800       -2.3315539E-18
   80.78950       -2.3242532E-18
   80.95100       -2.3178378E-18
   81.11250       -2.3171622E-18
   81.27400       -2.3228803E-18
   81.43550       -2.3311238E-18
   81.59700       -2.3363191E-18
   81.75850       -2.3350967E-18
   81.92000       -2.3285984E-18
   82.08150       -2.3216336E-18
   82.24300       -2.3193009E-18
   82.40450       -2.3233841E-18
   82.56600       -2.3310034E-18
   82.72750       -2.3365133E-18
   82.88900       -2.3354181E-18
   83.05050       -2.3276070E-18
   83.21200       -2.3175884E-18
   83.37350       -2.3114443E-18
   83.53500       -2.3125887E-18
   83.69650       -2.3193741E-18
   83.85800       -2.3263171E-18
   84.01950       -2.3280922E-18
   84.18100       -2.3233994E-18
   84.34250       -2.3158770E-18
   84.50400       -2.3114259E-18
   84.66550       -2.3139273E-18
   84.82700       -2.3224632E-18
   84.98850       -2.3319799E-18
   85.15000       -2.3368233E-18
   85.31150       -2.3345760E-18
   85.47300       -2.3275737E-18
   85.63450       -2.3211600E-18
   85.79600       -2.3200077E-18
   85.95750       -2.3250283E-18
   86.11900       -2.3328824E-18
   86.28050       -2.3383474E-18
   86.44200       -2.3379023E-18
   86.60350       -2.3321179E-18
   86.76500       -2.3252376E-18
   86.92650       -2.3222043E-18
   87.08800       -2.3251509E-18
   87.24950       -2.3318221E-18
   87.41100       -2.3371025E-18
   87.57250       -2.3366618E-18
   87.73400       -2.3301128E-18
   87.89550       -2.3213678E-18
   88.05700       -2.3158764E-18
   88.21850       -2.3167555E-18
   88.38000       -2.3226539E-18
   88.54150       -2.3289305E-18
   88.70300       -2.3312059E-18
   88.86450       -2.3286152E-18
   89.02600       -2.3243680E-18
   89.18750       -2.3232689E-18
   89.34900       -2.3281042E-18
   89.51050       -2.3375640E-18
   89.67200       -2.3471529E-18
   89.83350       -2.3523532E-18
   89.99500       -2.3517220E-18
   90.15650       -2.3477778E-18
   90.31800       -2.3451133E-18
   90.47950       -2.3471180E-18
   90.64100       -2.3535743E-18
   90.80250       -2.3607671E-18
   90.96400       -2.3640489E-18
   91.12550       -2.3610911E-18
   91.28700       -2.3535960E-18
   91.44850       -2.3462008E-18
   91.61000       -2.3432838E-18
   91.77150       -2.3458737E-18
   91.93300       -2.3508783E-18
   92.09450       -2.3532759E-18
   92.25600       -2.3497742E-18
   92.41750       -2.3413194E-18
   92.57900       -2.3325941E-18
   92.74050       -2.3287914E-18
   92.90200       -2.3319921E-18
   93.06350       -2.3397436E-18
   93.22500       -2.3468551E-18
   93.38650       -2.3490720E-18
   93.54800       -2.3459659E-18
   93.70950       -2.3410270E-18
   93.87100       -2.3390068E-18
   94.03250       -2.3424969E-18
   94.19400       -2.3501506E-18
   94.35550       -2.3577003E-18
   94.51700       -2.3609302E-18
   94.67850       -2.3584964E-18
   94.84000       -2.3527041E-18
   95.00150       -2.3478326E-18
   95.16300       -2.3472183E-18
   95.32450       -2.3510808E-18
   95.48600       -2.3565131E-18
   95.64750       -2.3595765E-18
   95.80900       -2.3580477E-18
   95.97050       -2.3529322E-18
   96.13200       -2.3476928E-18
   96.29350       -2.3457366E-18
   96.45500       -2.3479509E-18
   96.61650       -2.3520670E-18
   96.77800       -2.3543415E-18
   96.93950       -2.3523306E-18
   97.10100       -2.3467157E-18
   97.26250       -2.3408148E-18
   97.42400       -2.3381633E-18
   97.58550       -2.3399765E-18
   97.74700       -2.3443980E-18
   97.90850       -2.3480322E-18
   98.07000       -2.3485477E-18
   98.23150       -2.3463801E-18
   98.39300       -2.3443279E-18
   98.55450       -2.3454014E-18
   98.71600       -2.3505803E-18
   98.87750       -2.3580704E-18
   99.03900       -2.3645189E-18
   99.20050       -2.3672617E-18
   99.36200       -2.3660387E-18
   99.52350       -2.3630646E-18
   99.68500       -2.3614625E-18
   99.84650       -2.3631206E-18
   100.0080       -2.3673820E-18
   100.1695       -2.3714418E-18
   100.3310       -2.3722376E-18
   100.4925       -2.3686089E-18
   100.6540       -2.3622525E-18
   100.8155       -2.3567383E-18
   100.9770       -2.3551606E-18
   101.1385       -2.3580086E-18
   101.3000       -2.3627949E-18
   101.4615       -2.3657816E-18
   101.6230       -2.3646387E-18
   101.7845       -2.3601142E-18
   101.9460       -2.3554923E-18
   102.1075       -2.3542330E-18
   102.2690       -2.3575243E-18
   102.4305       -2.3634912E-18
   102.5920       -2.3685543E-18
   102.7535       -2.3698981E-18
   102.9150       -2.3673016E-18
   103.0765       -2.3631382E-18
   103.2380       -2.3606695E-18
   103.3995       -2.3618695E-18
   103.5610       -2.3661971E-18
   103.7225       -2.3710255E-18
   103.8840       -2.3733745E-18
   104.0455       -2.3718252E-18
   104.2070       -2.3674298E-18
   104.3685       -2.3630548E-18
   104.5300       -2.3615343E-18
   104.6915       -2.3637968E-18
   104.8530       -2.3682367E-18
   105.0145       -2.3718180E-18
   105.1760       -2.3722307E-18
   105.3375       -2.3695867E-18
   105.4990       -2.3663966E-18
   105.6605       -2.3657812E-18
   105.8220       -2.3691520E-18
   105.9835       -2.3750814E-18
   106.1450       -2.3802153E-18
   106.3065       -2.3815963E-18
   106.4680       -2.3787276E-18
   106.6295       -2.3738849E-18
   106.7910       -2.3704798E-18
   106.9525       -2.3706783E-18
   107.1140       -2.3739542E-18
   107.2755       -2.3775495E-18
   107.4370       -2.3784869E-18
   107.5985       -2.3757287E-18
   107.7600       -2.3709939E-18
   107.9215       -2.3676451E-18
   108.0830       -2.3683581E-18
   108.2445       -2.3731487E-18
   108.4060       -2.3791621E-18
   108.5675       -2.3824859E-18
   108.7290       -2.3808347E-18
   108.8905       -2.3752293E-18
   109.0520       -2.3693985E-18
   109.2135       -2.3671843E-18
   109.3750       -2.3697639E-18
   109.5365       -2.3747400E-18
   109.6980       -2.3778856E-18
   109.8595       -2.3763427E-18
   110.0210       -2.3709017E-18
   110.1825       -2.3656075E-18
   110.3440       -2.3648808E-18
   110.5055       -2.3702465E-18
   110.6670       -2.3790957E-18
   110.8285       -2.3864384E-18
   110.9900       -2.3884123E-18
   111.1515       -2.3849977E-18
   111.3130       -2.3799692E-18
   111.4745       -2.3781025E-18
   111.6360       -2.3816499E-18
   111.7975       -2.3886430E-18
   111.9590       -2.3942664E-18
   112.1205       -2.3943531E-18
   112.2820       -2.3885092E-18
   112.4435       -2.3805545E-18
   112.6050       -2.3758906E-18
   112.7665       -2.3776093E-18
   112.9280       -2.3841510E-18
   113.0895       -2.3903003E-18
   113.2510       -2.3909128E-18
   113.4125       -2.3847259E-18
   113.5740       -2.3754468E-18
   113.7355       -2.3692035E-18
   113.8970       -2.3701415E-18
   114.0585       -2.3773723E-18
   114.2200       -2.3855647E-18
   114.3815       -2.3888405E-18
   114.5430       -2.3851426E-18
   114.7045       -2.3778537E-18
   114.8660       -2.3733996E-18
   115.0275       -2.3765215E-18
   115.1890       -2.3866622E-18
   115.3505       -2.3981546E-18
   115.5120       -2.4041523E-18
   115.6735       -2.4014772E-18
   115.8350       -2.3928716E-18
   115.9965       -2.3850008E-18
   116.1580       -2.3836266E-18
   116.3195       -2.3894597E-18
   116.4810       -2.3977112E-18
   116.6425       -2.4016773E-18
   116.8040       -2.3977238E-18
   116.9655       -2.3880260E-18
   117.1270       -2.3790403E-18
   117.2885       -2.3768441E-18
   117.4500       -2.3827500E-18
   117.6115       -2.3923860E-18
   117.7730       -2.3988612E-18
   117.9345       -2.3976965E-18
   118.0960       -2.3899446E-18
   118.2575       -2.3812820E-18
   118.4190       -2.3778016E-18
   118.5805       -2.3816035E-18
   118.7420       -2.3893765E-18