  -27.90000        9.1648543E-18
  -27.73850        9.1929909E-18
  -27.57700        9.2328196E-18
  -27.41550        9.2633442E-18
  -27.25400        9.2732456E-18
  -27.09250        9.2681237E-18
  -26.93100        9.2657339E-18
  -26.76950        9.2826945E-18
  -26.60800        9.3221022E-18
  -26.44650        9.3708612E-18
  -26.28500        9.4086071E-18
  -26.12350        9.4219139E-18
  -25.96200        9.4137141E-18
  -25.80050        9.4012733E-18
  -25.63900        9.4041510E-18
  -25.47750        9.4306225E-18
  -25.31600        9.4721271E-18
  -25.15450        9.5095752E-18
  -24.99300        9.5269774E-18
  -24.83150        9.5227282E-18
  -24.67000        9.5105902E-18
  -24.50850        9.5097820E-18
  -24.34700        9.5312606E-18
  -24.18550        9.5699519E-18
  -24.02400        9.6084059E-18
  -23.86250        9.6292385E-18
  -23.70100        9.6275022E-18
  -23.53950        9.6141854E-18
  -23.37800        9.6083919E-18
  -23.21650        9.6237518E-18
  -23.05500        9.6587167E-18
  -22.89350        9.6976438E-18
  -22.73200        9.7218901E-18
  -22.57050        9.7230441E-18
  -22.40900        9.7088753E-18
  -22.24750        9.6977778E-18
  -22.08600        9.7056559E-18
  -21.92450        9.7346196E-18
  -21.76300        9.7715731E-18
  -21.60150        9.7977103E-18
  -21.44000        9.8021341E-18
  -21.27850        9.7898265E-18
  -21.11700        9.7782261E-18
  -20.95550        9.7847956E-18
  -20.79400        9.8144343E-18
  -20.63250        9.8557561E-18
  -20.47100        9.8889277E-18
  -20.30950        9.8995660E-18
  -20.14800        9.8888019E-18
  -19.98650        9.8723617E-18
  -19.82500        9.8693235E-18
  -19.66350        9.8885463E-18
  -19.50200        9.9224467E-18
  -19.34050        9.9525801E-18
  -19.17900        9.9630414E-18
  -19.01750        9.9521359E-18
  -18.85600        9.9339230E-18
  -18.69450        9.9284710E-18
  -18.53300        9.9476881E-18
  -18.37150        9.9868055E-18
  -18.21000        1.0027581E-17
  -18.04850        1.0050974E-17
  -17.88700        1.0050305E-17
  -17.72550        1.0035573E-17
  -17.56400        1.0025939E-17
  -17.40250        1.0035807E-17
  -17.24100        1.0064445E-17
  -17.07950        1.0096567E-17
  -16.91800        1.0113364E-17
  -16.75650        1.0106097E-17
  -16.59500        1.0082571E-17
  -16.43350        1.0061929E-17
  -16.27200        1.0061528E-17
  -16.11050        1.0085199E-17
  -15.94900        1.0121121E-17
  -15.78750        1.0150661E-17
  -15.62600        1.0161775E-17
  -15.46450        1.0157456E-17
  -15.30300        1.0153319E-17
  -15.14150        1.0166178E-17
  -14.98000        1.0201810E-17
  -14.81850        1.0250560E-17
  -14.65700        1.0293855E-17
  -14.49550        1.0316893E-17
  -14.33400        1.0318550E-17
  -14.17250        1.0311526E-17
  -14.01100        1.0312784E-17
  -13.84950        1.0331203E-17
  -13.68800        1.0361238E-17
  -13.52650        1.0387039E-17
  -13.36500        1.0393956E-17
  -13.20350        1.0379148E-17
  -13.04200        1.0353752E-17
  -12.88050        1.0335127E-17
  -12.71900        1.0334813E-17
  -12.55750        1.0350794E-17
  -12.39600        1.0369498E-17
  -12.23450        1.0375983E-17
  -12.07300        1.0364909E-17
  -11.91150        1.0344478E-17
  -11.75000        1.0330616E-17
  -11.58850        1.0335649E-17
  -11.42700        1.0359590E-17
  -11.26550        1.0390224E-17
  -11.10400        1.0411819E-17
  -10.94250        1.0416229E-17
  -10.78100        1.0408456E-17
  -10.61950        1.0402813E-17
  -10.45800        1.0412497E-17
  -10.29650        1.0440040E-17
  -10.13500        1.0475439E-17
  -9.973500        1.0503224E-17
  -9.812000        1.0513406E-17
  -9.650500        1.0508511E-17
  -9.489000        1.0501740E-17
  -9.327500        1.0507605E-17
  -9.166000        1.0531704E-17
  -9.004500        1.0566873E-17
  -8.843000        1.0598351E-17
  -8.681500        1.0614219E-17
  -8.520000        1.0613673E-17
  -8.358500        1.0607322E-17
  -8.197000        1.0609414E-17
  -8.035500        1.0627572E-17
  -7.874000        1.0657308E-17
  -7.712500        1.0685132E-17
  -7.551000        1.0697986E-17
  -7.389500        1.0692359E-17
  -7.228000        1.0676720E-17
  -7.066500        1.0665679E-17
  -6.905000        1.0670034E-17
  -6.743500        1.0689651E-17
  -6.582000        1.0714041E-17
  -6.420500        1.0730073E-17
  -6.259000        1.0731340E-17
  -6.097500        1.0722617E-17
  -5.936000        1.0716341E-17
  -5.774500        1.0723645E-17
  -5.613000        1.0746268E-17
  -5.451500        1.0775042E-17
  -5.290000        1.0796011E-17
  -5.128500        1.0799912E-17
  -4.967000        1.0788385E-17
  -4.805500        1.0772625E-17
  -4.644000        1.0765498E-17
  -4.482500        1.0772697E-17
  -4.321000        1.0789192E-17
  -4.159500        1.0803359E-17
  -3.998000        1.0805753E-17
  -3.836500        1.0796212E-17
  -3.675000        1.0784246E-17
  -3.513500        1.0782452E-17
  -3.352000        1.0797709E-17
  -3.190500        1.0826356E-17
  -3.029000        1.0856760E-17
  -2.867500        1.0877372E-17
  -2.706000        1.0884578E-17
  -2.544500        1.0884818E-17
  -2.383000        1.0889598E-17
  -2.221500        1.0906984E-17
  -2.060000        1.0935648E-17
  -1.898500        1.0965630E-17
  -1.737000        1.0985246E-17
  -1.575500        1.0989190E-17
  -1.414000        1.0982108E-17
  -1.252500        1.0975153E-17
  -1.091000        1.0977975E-17
 -0.9295000        1.0991888E-17
 -0.7680000        1.1009075E-17
 -0.6065000        1.1018369E-17
 -0.4450000        1.1013493E-17
 -0.2835000        1.0997872E-17
 -0.1220000        1.0982596E-17
  3.9500002E-02    1.0978981E-17
  0.2010000        1.0990988E-17
  0.3625000        1.1012840E-17
  0.5240000        1.1033427E-17
  0.6855000        1.1044286E-17
  0.8470000        1.1045480E-17
   1.008500        1.1045228E-17
   1.170000        1.1053646E-17
   1.331500        1.1075106E-17
   1.493000        1.1104666E-17
   1.654500        1.1131126E-17
   1.816000        1.1144570E-17
   1.977500        1.1143096E-17
   2.139000        1.1134055E-17
   2.300500        1.1128915E-17
   2.462000        1.1135378E-17
   2.623500        1.1152257E-17
   2.785000        1.1170684E-17
   2.946500        1.1180722E-17
   3.108000        1.1178645E-17
   3.269500        1.1169686E-17
   3.431000        1.1164310E-17
   3.592500        1.1170657E-17
   3.754000        1.1188580E-17
   3.915500        1.1209553E-17
   4.077000        1.1222551E-17
   4.238500        1.1221722E-17
   4.400000        1.1210422E-17
   4.561500        1.1198801E-17
   4.723000        1.1196694E-17
   4.884500        1.1206907E-17
   5.046000        1.1223599E-17
   5.207500        1.1236803E-17
   5.369000        1.1239759E-17
   5.530500        1.1233836E-17
   5.692000        1.1227562E-17
   5.853500        1.1230545E-17
   6.015000        1.1246632E-17
   6.176500        1.1271127E-17
   6.338000        1.1294006E-17
   6.499500        1.1306804E-17
   6.661000        1.1308317E-17
   6.822500        1.1305173E-17
   6.984000        1.1306931E-17
   7.145500        1.1319240E-17
   7.307000        1.1339883E-17
   7.468500        1.1360432E-17
   7.630000        1.1372269E-17
   7.791500        1.1372659E-17
   7.953000        1.1366612E-17
   8.114500        1.1363286E-17
   8.276000        1.1369561E-17
   8.437500        1.1385361E-17
   8.599000        1.1403963E-17
   8.760500        1.1416982E-17
   8.922000        1.1420433E-17
   9.083500        1.1417578E-17
   9.245000        1.1416620E-17
   9.406500        1.1424946E-17
   9.568000        1.1443980E-17
   9.729500        1.1468245E-17
   9.891000        1.1489156E-17
   10.05250        1.1500850E-17
   10.21400        1.1503936E-17
   10.37550        1.1504602E-17
   10.53700        1.1509835E-17
   10.69850        1.1522178E-17
   10.86000        1.1537766E-17
   11.02150        1.1548991E-17
   11.18300        1.1549930E-17
   11.34450        1.1540639E-17
   11.50600        1.1527354E-17
   11.66750        1.1518421E-17
   11.82900        1.1518850E-17
   11.99050        1.1527280E-17
   12.15200        1.1537414E-17
   12.31350        1.1542835E-17
   12.47500        1.1541754E-17
   12.63650        1.1538346E-17
   12.79800        1.1539763E-17
   12.95950        1.1550959E-17
   13.12100        1.1570991E-17
   13.28250        1.1593382E-17
   13.44400        1.1610324E-17
   13.60550        1.1617770E-17
   13.76700        1.1617932E-17
   13.92850        1.1617483E-17
   14.09000        1.1622735E-17
   14.25150        1.1635201E-17
   14.41300        1.1650562E-17
   14.57450        1.1661775E-17
   14.73600        1.1664105E-17
   14.89750        1.1658582E-17
   15.05900        1.1651470E-17
   15.22050        1.1650123E-17
   15.38200        1.1658073E-17
   15.54350        1.1672755E-17
   15.70500        1.1687369E-17
   15.86650        1.1695606E-17
   16.02800        1.1695962E-17
   16.18950        1.1692687E-17
   16.35100        1.1692772E-17
   16.51250        1.1701056E-17
   16.67400        1.1716833E-17
   16.83550        1.1734291E-17
   16.99700        1.1746475E-17
   17.15850        1.1750048E-17
   17.32000        1.1747586E-17
   17.48150        1.1745830E-17
   17.64300        1.1751077E-17
   17.80450        1.1764885E-17
   17.96600        1.1783044E-17
   18.12750        1.1798529E-17
   18.28900        1.1806396E-17
   18.45050        1.1807209E-17
   18.61200        1.1806600E-17
   18.77350        1.1811259E-17
   18.93500        1.1824146E-17
   19.09650        1.1842290E-17
   19.25800        1.1858747E-17
   19.41950        1.1867377E-17
   19.58100        1.1867089E-17
   19.74250        1.1862569E-17
   19.90400        1.1860944E-17
   20.06550        1.1866747E-17
   20.22700        1.1878733E-17
   20.38850        1.1890815E-17
   20.55000        1.1896490E-17
   20.71150        1.1893633E-17
   20.87300        1.1886223E-17
   21.03450        1.1881742E-17
   21.19600        1.1886033E-17
   21.35750        1.1899240E-17
   21.51900        1.1915732E-17
   21.68050        1.1928112E-17
   21.84200        1.1932484E-17
   22.00350        1.1931236E-17
   22.16500        1.1931295E-17
   22.32650        1.1939027E-17
   22.48800        1.1955411E-17
   22.64950        1.1974959E-17
   22.81100        1.1989286E-17
   22.97250        1.1992859E-17
   23.13400        1.1986882E-17
   23.29550        1.1978470E-17
   23.45700        1.1975656E-17
   23.61850        1.1981751E-17
   23.78000        1.1993131E-17
   23.94150        1.2002068E-17
   24.10300        1.2002593E-17
   24.26450        1.1995172E-17
   24.42600        1.1986767E-17
   24.58750        1.1986177E-17
   24.74900        1.1997956E-17
   24.91050        1.2019220E-17
   25.07200        1.2041632E-17
   25.23350        1.2057148E-17
   25.39500        1.2063443E-17
   25.55650        1.2065216E-17
   25.71800        1.2070491E-17
   25.87950        1.2084597E-17
   26.04100        1.2106090E-17
   26.20250        1.2127533E-17
   26.36400        1.2140596E-17
   26.52550        1.2141881E-17
   26.68700        1.2135372E-17
   26.84850        1.2129710E-17
   27.01000        1.2132206E-17
   27.17150        1.2143815E-17
   27.33300        1.2158639E-17
   27.49450        1.2168328E-17
   27.65600        1.2168202E-17
   27.81750        1.2160717E-17
   27.97900        1.2153749E-17
   28.14050        1.2154949E-17
   28.30200        1.2166273E-17
   28.46350        1.2182635E-17
   28.62500        1.2195632E-17
   28.78650        1.2199596E-17
   28.94800        1.2195580E-17
   29.10950        1.2190480E-17
   29.27100        1.2191980E-17
   29.43250        1.2203044E-17
   29.59400        1.2219824E-17
   29.75550        1.2234450E-17
   29.91700        1.2240601E-17
   30.07850        1.2237937E-17
   30.24000        1.2232239E-17
   30.40150        1.2231282E-17
   30.56300        1.2239339E-17
   30.72450        1.2254229E-17
   30.88600        1.2268945E-17
   31.04750        1.2276704E-17
   31.20900        1.2275816E-17
   31.37050        1.2270892E-17
   31.53200        1.2269522E-17
   31.69350        1.2276766E-17
   31.85500        1.2291442E-17
   32.01650        1.2306906E-17
   32.17800        1.2315756E-17
   32.33950        1.2315086E-17
   32.50100        1.2308489E-17
   32.66250        1.2303430E-17
   32.82400        1.2305941E-17
   32.98550        1.2316475E-17
   33.14700        1.2329846E-17
   33.30850        1.2339205E-17
   33.47000        1.2341097E-17
   33.63150        1.2337979E-17
   33.79300        1.2336471E-17
   33.95450        1.2342671E-17
   34.11600        1.2357855E-17
   34.27750        1.2377533E-17
   34.43900        1.2394462E-17
   34.60050        1.2403495E-17
   34.76200        1.2404899E-17
   34.92350        1.2403901E-17
   35.08500        1.2406790E-17
   35.24650        1.2416341E-17
   35.40800        1.2429772E-17
   35.56950        1.2440692E-17
   35.73100        1.2443703E-17
   35.89250        1.2438402E-17
   36.05400        1.2429920E-17
   36.21550        1.2425556E-17
   36.37700        1.2429840E-17
   36.53850        1.2441546E-17
   36.70000        1.2454763E-17
   36.86150        1.2463252E-17
   37.02300        1.2464954E-17
   37.18450        1.2463416E-17
   37.34600        1.2465170E-17
   37.50750        1.2474964E-17
   37.66900        1.2492252E-17
   37.83050        1.2511402E-17
   37.99200        1.2525457E-17
   38.15350        1.2530776E-17
   38.31500        1.2529355E-17
   38.47650        1.2527216E-17
   38.63800        1.2530072E-17
   38.79950        1.2539279E-17
   38.96100        1.2550910E-17
   39.12250        1.2558562E-17
   39.28400        1.2557968E-17
   39.44550        1.2550155E-17
   39.60700        1.2540934E-17
   39.76850        1.2537031E-17
   39.93000        1.2541564E-17
   40.09150        1.2552039E-17
   40.25300        1.2562303E-17
   40.41450        1.2567036E-17
   40.57600        1.2565587E-17
   40.73750        1.2562412E-17
   40.89900        1.2563808E-17
   41.06050        1.2573312E-17
   41.22200        1.2589056E-17
   41.38350        1.2605002E-17
   41.54500        1.2615121E-17
   41.70650        1.2617565E-17
   41.86800        1.2615815E-17
   42.02950        1.2616062E-17
   42.19100        1.2622708E-17
   42.35250        1.2635234E-17
   42.51400        1.2648645E-17
   42.67550        1.2657141E-17
   42.83700        1.2658383E-17
   42.99850        1.2655254E-17
   43.16000        1.2653873E-17
   43.32150        1.2659253E-17
   43.48300        1.2671723E-17
   43.64450        1.2686664E-17
   43.80600        1.2697779E-17
   43.96750        1.2701542E-17
   44.12900        1.2699658E-17
   44.29050        1.2697764E-17
   44.45200        1.2701289E-17
   44.61350        1.2711438E-17
   44.77500        1.2724223E-17
   44.93650        1.2733281E-17
   45.09800        1.2734492E-17
   45.25950        1.2729113E-17
   45.42100        1.2723101E-17
   45.58250        1.2723056E-17
   45.74400        1.2731636E-17
   45.90550        1.2745720E-17
   46.06700        1.2758661E-17
   46.22850        1.2765062E-17
   46.39000        1.2764632E-17
   46.55150        1.2762359E-17
   46.71300        1.2764835E-17
   46.87450        1.2775385E-17
   47.03600        1.2791495E-17
   47.19750        1.2806426E-17
   47.35900        1.2813844E-17
   47.52050        1.2812188E-17
   47.68200        1.2805679E-17
   47.84350        1.2801300E-17
   48.00500        1.2803923E-17
   48.16650        1.2813033E-17
   48.32800        1.2823301E-17
   48.48950        1.2828556E-17
   48.65100        1.2826294E-17
   48.81250        1.2819575E-17
   48.97400        1.2814974E-17
   49.13550        1.2818050E-17
   49.29700        1.2829508E-17
   49.45850        1.2844743E-17
   49.62000        1.2857063E-17
   49.78150        1.2862315E-17
   49.94300        1.2861657E-17
   50.10450        1.2860518E-17
   50.26600        1.2864517E-17
   50.42750        1.2875285E-17
   50.58900        1.2889197E-17
   50.75050        1.2899949E-17
   50.91200        1.2903070E-17
   51.07350        1.2899098E-17
   51.23500        1.2893158E-17
   51.39650        1.2891263E-17
   51.55800        1.2896081E-17
   51.71950        1.2905186E-17
   51.88100        1.2913040E-17
   52.04250        1.2915192E-17
   52.20400        1.2911630E-17
   52.36550        1.2906904E-17
   52.52700        1.2906944E-17
   52.68850        1.2914899E-17
   52.85000        1.2928940E-17
   53.01150        1.2943568E-17
   53.17300        1.2953474E-17
   53.33450        1.2957219E-17
   53.49600        1.2958114E-17
   53.65750        1.2961690E-17
   53.81900        1.2971517E-17
   53.98050        1.2986411E-17
   54.14200        1.3001043E-17
   54.30350        1.3009609E-17
   54.46500        1.3009962E-17
   54.62650        1.3005241E-17
   54.78800        1.3001772E-17
   54.94950        1.3004693E-17
   55.11100        1.3014408E-17
   55.27250        1.3026429E-17
   55.43400        1.3034730E-17
   55.59550        1.3036185E-17
   55.75700        1.3032872E-17
   55.91850        1.3030575E-17
   56.08000        1.3034554E-17
   56.24150        1.3045634E-17
   56.40300        1.3059427E-17
   56.56450        1.3069242E-17
   56.72600        1.3070666E-17
   56.88750        1.3064568E-17
   57.04900        1.3056439E-17
   57.21050        1.3052559E-17
   57.37200        1.3055694E-17
   57.53350        1.3063361E-17
   57.69500        1.3069857E-17
   57.85650        1.3070583E-17
   58.01800        1.3065563E-17
   58.17950        1.3059643E-17
   58.34100        1.3059152E-17
   58.50250        1.3067399E-17
   58.66400        1.3082231E-17
   58.82550        1.3097423E-17
   58.98700        1.3106966E-17
   59.14850        1.3109180E-17
   59.31000        1.3107712E-17
   59.47150        1.3108718E-17
   59.63300        1.3116272E-17
   59.79450        1.3129346E-17
   59.95600        1.3142534E-17
   60.11750        1.3149987E-17
   60.27900        1.3149674E-17
   60.44050        1.3144872E-17
   60.60200        1.3141810E-17
   60.76350        1.3145184E-17
   60.92500        1.3154822E-17
   61.08650        1.3165891E-17
   61.24800        1.3172476E-17
   61.40950        1.3171918E-17
   61.57100        1.3166788E-17
   61.73250        1.3163073E-17
   61.89400        1.3165908E-17
   62.05550        1.3175933E-17
   62.21700        1.3188913E-17
   62.37850        1.3198854E-17
   62.54000        1.3202326E-17
   62.70150        1.3200857E-17
   62.86300        1.3199662E-17
   63.02450        1.3203679E-17
   63.18600        1.3213800E-17
   63.34750        1.3226089E-17
   63.50900        1.3234548E-17
   63.67050        1.3235463E-17
   63.83200        1.3230113E-17
   63.99350        1.3223897E-17
   64.15500        1.3222513E-17
   64.31650        1.3227974E-17
   64.47800        1.3237406E-17
   64.63950        1.3245412E-17
   64.80100        1.3248261E-17
   64.96250        1.3246744E-17
   65.12400        1.3245598E-17
   65.28550        1.3249927E-17
   65.44700        1.3261277E-17
   65.60850        1.3276300E-17
   65.77000        1.3288998E-17
   65.93150        1.3294894E-17
   66.09300        1.3294094E-17
   66.25450        1.3291045E-17
   66.41600        1.3291204E-17
   66.57750        1.3297119E-17
   66.73900        1.3306732E-17
   66.90050        1.3315108E-17
   67.06200        1.3318278E-17
   67.22350        1.3316322E-17
   67.38500        1.3313470E-17
   67.54650        1.3315116E-17
   67.70800        1.3323947E-17
   67.86950        1.3337951E-17
   68.03100        1.3351760E-17
   68.19250        1.3360334E-17
   68.35400        1.3362344E-17
   68.51550        1.3360839E-17
   68.67700        1.3360777E-17
   68.83850        1.3365263E-17
   69.00000        1.3373266E-17
   69.16150        1.3380448E-17
   69.32300        1.3382443E-17
   69.48450        1.3378152E-17
   69.64600        1.3370624E-17
   69.80750        1.3364959E-17
   69.96900        1.3364784E-17
   70.13050        1.3369915E-17
   70.29200        1.3376799E-17
   70.45350        1.3381346E-17
   70.61500        1.3381956E-17
   70.77650        1.3380580E-17
   70.93800        1.3381118E-17
   71.09950        1.3386423E-17
   71.26100        1.3396162E-17
   71.42250        1.3407082E-17
   71.58400        1.3415386E-17
   71.74550        1.3419437E-17
   71.90700        1.3420778E-17
   72.06850        1.3422741E-17
   72.23000        1.3427759E-17
   72.39150        1.3435413E-17
   72.55300        1.3442702E-17
   72.71450        1.3446308E-17
   72.87600        1.3445130E-17
   73.03750        1.3441139E-17
   73.19900        1.3437902E-17
   73.36050        1.3437934E-17
   73.52200        1.3440906E-17
   73.68350        1.3444103E-17
   73.84500        1.3444745E-17
   74.00650        1.3442375E-17
   74.16800        1.3439436E-17
   74.32950        1.3439578E-17
   74.49100        1.3444956E-17
   74.65250        1.3454592E-17
   74.81400        1.3465031E-17
   74.97550        1.3472799E-17
   75.13700        1.3476806E-17
   75.29850        1.3478927E-17
   75.46000        1.3482363E-17
   75.62150        1.3489068E-17
   75.78300        1.3498183E-17
   75.94450        1.3506657E-17
   76.10600        1.3511583E-17
   76.26750        1.3512463E-17
   76.42900        1.3511701E-17
   76.59050        1.3512942E-17
   76.75200        1.3518523E-17
   76.91350        1.3527923E-17
   77.07500        1.3538363E-17
   77.23650        1.3547010E-17
   77.39800        1.3553107E-17
   77.55950        1.3558351E-17
   77.72100        1.3565302E-17
   77.88250        1.3575092E-17
   78.04400        1.3586275E-17
   78.20550        1.3595764E-17
   78.36700        1.3601108E-17
   78.52850        1.3602358E-17
   78.69000        1.3602038E-17
   78.85150        1.3603250E-17
   79.01300        1.3607386E-17
   79.17450        1.3613231E-17
   79.33600        1.3618153E-17
   79.49750        1.3620419E-17
   79.65900        1.3620789E-17
   79.82050        1.3622076E-17
   79.98200        1.3626936E-17
   80.14350        1.3635616E-17
   80.30500        1.3645426E-17
   80.46650        1.3652451E-17
   80.62800        1.3654278E-17
   80.78950        1.3651712E-17
   80.95100        1.3648121E-17
   81.11250        1.3646881E-17
   81.27400        1.3648829E-17
   81.43550        1.3651663E-17
   81.59700        1.3651806E-17
   81.75850        1.3647343E-17
   81.92000        1.3639767E-17
   82.08150        1.3633171E-17
   82.24300        1.3631367E-17
   82.40450        1.3635085E-17
   82.56600        1.3641376E-17
   82.72750        1.3645771E-17
   82.88900        1.3645616E-17
   83.05050        1.3642103E-17
   83.21200        1.3639416E-17
   83.37350        1.3641583E-17
   83.53500        1.3649389E-17
   83.69650        1.3659717E-17
   83.85800        1.3667863E-17
   84.01950        1.3671126E-17
   84.18100        1.3670881E-17
   84.34250        1.3671525E-17
   84.50400        1.3676972E-17
   84.66550        1.3687396E-17
   84.82700        1.3698735E-17
   84.98850        1.3705469E-17
   85.15000        1.3704646E-17
   85.31150        1.3698138E-17
   85.47300        1.3691393E-17
   85.63450        1.3689556E-17
   85.79600        1.3693841E-17
   85.95750        1.3700875E-17
   86.11900        1.3705526E-17
   86.28050        1.3705098E-17
   86.44200        1.3701701E-17
   86.60350        1.3700951E-17
   86.76500        1.3707889E-17
   86.92650        1.3723080E-17
   87.08800        1.3741834E-17
   87.24950        1.3757218E-17
   87.41100        1.3764759E-17
   87.57250        1.3765443E-17
   87.73400        1.3764777E-17
   87.89550        1.3768600E-17
   88.05700        1.3778714E-17
   88.21850        1.3791586E-17
   88.38000        1.3801107E-17
   88.54150        1.3803348E-17
   88.70300        1.3799736E-17
   88.86450        1.3796181E-17
   89.02600        1.3798762E-17
   89.18750        1.3809158E-17
   89.34900        1.3823290E-17
   89.51050        1.3834214E-17
   89.67200        1.3837125E-17
   89.83350        1.3832740E-17
   89.99500        1.3826547E-17
   90.15650        1.3824579E-17
   90.31800        1.3828876E-17
   90.47950        1.3836093E-17
   90.64100        1.3840241E-17
   90.80250        1.3837467E-17
   90.96400        1.3829257E-17
   91.12550        1.3821593E-17
   91.28700        1.3820658E-17
   91.44850        1.3828271E-17
   91.61000        1.3840467E-17
   91.77150        1.3850311E-17
   91.93300        1.3852910E-17
   92.09450        1.3848951E-17
   92.25600        1.3844103E-17
   92.41750        1.3844711E-17
   92.57900        1.3852967E-17
   92.74050        1.3865189E-17
   92.90200        1.3874515E-17
   93.06350        1.3876047E-17
   93.22500        1.3870564E-17
   93.38650        1.3864060E-17
   93.54800        1.3863373E-17
   93.70950        1.3871179E-17
   93.87100        1.3884016E-17
   94.03250        1.3894783E-17
   94.19400        1.3897855E-17
   94.35550        1.3893069E-17
   94.51700        1.3885707E-17
   94.67850        1.3882605E-17
   94.84000        1.3887302E-17
   95.00150        1.3897738E-17
   95.16300        1.3908066E-17
   95.32450        1.3913125E-17
   95.48600        1.3912237E-17
   95.64750        1.3909634E-17
   95.80900        1.3911265E-17
   95.97050        1.3920391E-17
   96.13200        1.3935173E-17
   96.29350        1.3949973E-17
   96.45500        1.3959282E-17
   96.61650        1.3961404E-17
   96.77800        1.3959258E-17
   96.93950        1.3957882E-17
   97.10100        1.3960595E-17
   97.26250        1.3966718E-17
   97.42400        1.3972404E-17
   97.58550        1.3973822E-17
   97.74700        1.3970230E-17
   97.90850        1.3964627E-17
   98.07000        1.3961632E-17
   98.23150        1.3964238E-17
   98.39300        1.3971815E-17
   98.55450        1.3980778E-17
   98.71600        1.3987234E-17
   98.87750        1.3989672E-17
   99.03900        1.3989758E-17
   99.20050        1.3990812E-17
   99.36200        1.3995152E-17
   99.52350        1.4002292E-17
   99.68500        1.4009267E-17
   99.84650        1.4012777E-17
   100.0080        1.4011550E-17
   100.1695        1.4007205E-17
   100.3310        1.4003079E-17
   100.4925        1.4001863E-17
   100.6540        1.4003830E-17
   100.8155        1.4006851E-17
   100.9770        1.4008103E-17
   101.1385        1.4006122E-17
   101.3000        1.4001757E-17
   101.4615        1.3997426E-17
   101.6230        1.3995388E-17
   101.7845        1.3996348E-17
   101.9460        1.3999281E-17
   102.1075        1.4002396E-17
   102.2690        1.4004437E-17
   102.4305        1.4005415E-17
   102.5920        1.4006451E-17
   102.7535        1.4009002E-17
   102.9150        1.4014033E-17
   103.0765        1.4021552E-17
   103.2380        1.4030644E-17
   103.3995        1.4039914E-17
   103.5610        1.4048094E-17
   103.7225        1.4054641E-17
   103.8840        1.4059959E-17
   104.0455        1.4065139E-17
   104.2070        1.4071260E-17
   104.3685        1.4078637E-17
   104.5300        1.4086519E-17
   104.6915        1.4093473E-17
   104.8530        1.4098279E-17
   105.0145        1.4100787E-17
   105.1760        1.4102162E-17
   105.3375        1.4104253E-17
   105.4990        1.4108409E-17
   105.6605        1.4114489E-17
   105.8220        1.4120792E-17
   105.9835        1.4125112E-17
   106.1450        1.4126291E-17
   106.3065        1.4125204E-17
   106.4680        1.4124382E-17
   106.6295        1.4126304E-17
   106.7910        1.4131557E-17
   106.9525        1.4138209E-17
   107.1140        1.4143108E-17
   107.2755        1.4144262E-17
   107.4370        1.4142553E-17
   107.5985        1.4141331E-17
   107.7600        1.4144016E-17
   107.9215        1.4151414E-17
   108.0830        1.4160824E-17
   108.2445        1.4167753E-17
   108.4060        1.4169104E-17
   108.5675        1.4165478E-17
   108.7290        1.4160793E-17
   108.8905        1.4159406E-17
   109.0520        1.4162834E-17
   109.2135        1.4168532E-17
   109.3750        1.4171693E-17
   109.5365        1.4168859E-17
   109.6980        1.4160665E-17
   109.8595        1.4151697E-17
   110.0210        1.4147427E-17
   110.1825        1.4150384E-17
   110.3440        1.4158318E-17
   110.5055        1.4165777E-17
   110.6670        1.4168037E-17
   110.8285        1.4164565E-17
   110.9900        1.4159436E-17
   111.1515        1.4158344E-17
   111.3130        1.4164295E-17
   111.4745        1.4175176E-17
   111.6360        1.4185097E-17
   111.7975        1.4188613E-17
   111.9590        1.4184745E-17
   112.1205        1.4177791E-17
   112.2820        1.4174244E-17
   112.4435        1.4178035E-17
   112.6050        1.4187645E-17
   112.7665        1.4197271E-17
   112.9280        1.4201174E-17
   113.0895        1.4197986E-17
   113.2510        1.4191764E-17
   113.4125        1.4188991E-17
   113.5740        1.4193733E-17
   113.7355        1.4204630E-17
   113.8970        1.4215926E-17
   114.0585        1.4221771E-17
   114.2200        1.4220610E-17
   114.3815        1.4216350E-17
   114.5430        1.4215507E-17
   114.7045        1.4222414E-17
   114.8660        1.4236031E-17
   115.0275        1.4250682E-17
   115.1890        1.4260162E-17
   115.3505        1.4262129E-17
   115.5120        1.4259618E-17
   115.6735        1.4258587E-17
   115.8350        1.4263363E-17
   115.9965        1.4273359E-17
   116.1580        1.4283427E-17
   116.3195        1.4287634E-17
   116.4810        1.4283611E-17
   116.6425        1.4274355E-17
   116.8040        1.4266142E-17
   116.9655        1.4264086E-17
   117.1270        1.4268616E-17
   117.2885        1.4275400E-17
   117.4500        1.4278742E-17
   117.6115        1.4275877E-17
   117.7730        1.4269026E-17
   117.9345        1.4263681E-17
   118.0960        1.4264480E-17
   118.2575        1.4271756E-17
   118.4190        1.4281348E-17
   118.5805        1.4287755E-17
   118.7420        1.4288207E-17