  -27.90000        5.8697762E-18
  -27.73850        5.8712800E-18
  -27.57700        5.8734840E-18
  -27.41550        5.8755553E-18
  -27.25400        5.8773184E-18
  -27.09250        5.8792044E-18
  -26.93100        5.8815813E-18
  -26.76950        5.8842295E-18
  -26.60800        5.8865270E-18
  -26.44650        5.8881272E-18
  -26.28500        5.8893742E-18
  -26.12350        5.8909723E-18
  -25.96200        5.8932425E-18
  -25.80050        5.8957488E-18
  -25.63900        5.8977328E-18
  -25.47750        5.8989240E-18
  -25.31600        5.8998657E-18
  -25.15450        5.9013733E-18
  -24.99300        5.9036641E-18
  -24.83150        5.9060907E-18
  -24.67000        5.9077719E-18
  -24.50850        5.9084907E-18
  -24.34700        5.9089308E-18
  -24.18550        5.9100252E-18
  -24.02400        5.9120621E-18
  -23.86250        5.9144386E-18
  -23.70100        5.9162733E-18
  -23.53950        5.9172440E-18
  -23.37800        5.9178296E-18
  -23.21650        5.9187565E-18
  -23.05500        5.9202561E-18
  -22.89350        5.9219035E-18
  -22.73200        5.9231558E-18
  -22.57050        5.9239793E-18
  -22.40900        5.9248677E-18
  -22.24750        5.9262702E-18
  -22.08600        5.9280759E-18
  -21.92450        5.9297203E-18
  -21.76300        5.9307675E-18
  -21.60150        5.9313333E-18
  -21.44000        5.9319119E-18
  -21.27850        5.9328301E-18
  -21.11700        5.9339563E-18
  -20.95550        5.9349704E-18
  -20.79400        5.9358903E-18
  -20.63250        5.9372166E-18
  -20.47100        5.9394645E-18
  -20.30950        5.9425255E-18
  -20.14800        5.9455757E-18
  -19.98650        5.9477314E-18
  -19.82500        5.9488336E-18
  -19.66350        5.9495561E-18
  -19.50200        5.9506902E-18
  -19.34050        5.9523069E-18
  -19.17900        5.9536502E-18
  -19.01750        5.9538860E-18
  -18.85600        5.9529811E-18
  -18.69450        5.9518524E-18
  -18.53300        5.9516311E-18
  -18.37150        5.9527300E-18
  -18.21000        5.9545697E-18
  -18.04850        5.9562013E-18
  -17.88700        5.9571840E-18
  -17.72550        5.9579007E-18
  -17.56400        5.9590745E-18
  -17.40250        5.9610390E-18
  -17.24100        5.9634978E-18
  -17.07950        5.9659211E-18
  -16.91800        5.9680771E-18
  -16.75650        5.9701260E-18
  -16.59500        5.9722639E-18
  -16.43350        5.9743790E-18
  -16.27200        5.9761264E-18
  -16.11050        5.9773068E-18
  -15.94900        5.9780967E-18
  -15.78750        5.9788693E-18
  -15.62600        5.9797755E-18
  -15.46450        5.9805841E-18
  -15.30300        5.9809964E-18
  -15.14150        5.9811048E-18
  -14.98000        5.9814439E-18
  -14.81850        5.9824932E-18
  -14.65700        5.9840938E-18
  -14.49550        5.9854442E-18
  -14.33400        5.9857664E-18
  -14.17250        5.9850463E-18
  -14.01100        5.9841050E-18
  -13.84950        5.9839118E-18
  -13.68800        5.9847572E-18
  -13.52650        5.9860621E-18
  -13.36500        5.9869819E-18
  -13.20350        5.9872334E-18
  -13.04200        5.9873723E-18
  -12.88050        5.9882752E-18
  -12.71900        5.9903221E-18
  -12.55750        5.9930484E-18
  -12.39600        5.9955482E-18
  -12.23450        5.9972001E-18
  -12.07300        5.9980434E-18
  -11.91150        5.9985645E-18
  -11.75000        5.9992246E-18
  -11.58850        6.0002180E-18
  -11.42700        6.0015779E-18
  -11.26550        6.0033568E-18
  -11.10400        6.0056129E-18
  -10.94250        6.0082367E-18
  -10.78100        6.0108945E-18
  -10.61950        6.0132494E-18
  -10.45800        6.0152855E-18
  -10.29650        6.0173498E-18
  -10.13500        6.0197871E-18
  -9.973500        6.0224717E-18
  -9.812000        6.0247369E-18
  -9.650500        6.0258648E-18
  -9.489000        6.0257159E-18
  -9.327500        6.0248721E-18
  -9.166000        6.0241322E-18
  -9.004500        6.0238200E-18
  -8.843000        6.0235689E-18
  -8.681500        6.0227868E-18
  -8.520000        6.0213471E-18
  -8.358500        6.0198450E-18
  -8.197000        6.0191518E-18
  -8.035500        6.0196849E-18
  -7.874000        6.0210572E-18
  -7.712500        6.0224270E-18
  -7.551000        6.0232095E-18
  -7.389500        6.0234726E-18
  -7.228000        6.0237025E-18
  -7.066500        6.0242261E-18
  -6.905000        6.0248982E-18
  -6.743500        6.0253118E-18
  -6.582000        6.0252576E-18
  -6.420500        6.0249524E-18
  -6.259000        6.0248477E-18
  -6.097500        6.0252791E-18
  -5.936000        6.0263152E-18
  -5.774500        6.0278943E-18
  -5.613000        6.0299928E-18
  -5.451500        6.0325525E-18
  -5.290000        6.0352293E-18
  -5.128500        6.0373282E-18
  -4.967000        6.0381794E-18
  -4.805500        6.0377195E-18
  -4.644000        6.0367186E-18
  -4.482500        6.0363046E-18
  -4.321000        6.0371144E-18
  -4.159500        6.0388192E-18
  -3.998000        6.0404877E-18
  -3.836500        6.0414704E-18
  -3.675000        6.0420146E-18
  -3.513500        6.0430366E-18
  -3.352000        6.0452626E-18
  -3.190500        6.0485274E-18
  -3.029000        6.0518544E-18
  -2.867500        6.0542201E-18
  -2.706000        6.0552876E-18
  -2.544500        6.0554853E-18
  -2.383000        6.0554609E-18
  -2.221500        6.0555163E-18
  -2.060000        6.0555556E-18
  -1.898500        6.0554650E-18
  -1.737000        6.0554112E-18
  -1.575500        6.0557107E-18
  -1.414000        6.0564601E-18
  -1.252500        6.0574085E-18
  -1.091000        6.0582563E-18
 -0.9295000        6.0590666E-18
 -0.7680000        6.0602916E-18
 -0.6065000        6.0623161E-18
 -0.4450000        6.0649577E-18
 -0.2835000        6.0674777E-18
 -0.1220000        6.0691635E-18
  3.9500002E-02    6.0699432E-18
  0.2010000        6.0704039E-18
  0.3625000        6.0711934E-18
  0.5240000        6.0724040E-18
  0.6855000        6.0735902E-18
  0.8470000        6.0743880E-18
   1.008500        6.0750560E-18
   1.170000        6.0763133E-18
   1.331500        6.0786099E-18
   1.493000        6.0815448E-18
   1.654500        6.0840743E-18
   1.816000        6.0853424E-18
   1.977500        6.0853552E-18
   2.139000        6.0848469E-18
   2.300500        6.0845028E-18
   2.462000        6.0843175E-18
   2.623500        6.0837182E-18
   2.785000        6.0822826E-18
   2.946500        6.0802928E-18
   3.108000        6.0785628E-18
   3.269500        6.0777542E-18
   3.431000        6.0778977E-18
   3.592500        6.0785533E-18
   3.754000        6.0793416E-18
   3.915500        6.0802085E-18
   4.077000        6.0811750E-18
   4.238500        6.0819559E-18
   4.400000        6.0820101E-18
   4.561500        6.0810832E-18
   4.723000        6.0796650E-18
   4.884500        6.0787737E-18
   5.046000        6.0791389E-18
   5.207500        6.0805431E-18
   5.369000        6.0820283E-18
   5.530500        6.0828298E-18
   5.692000        6.0831561E-18
   5.853500        6.0840276E-18
   6.015000        6.0863114E-18
   6.176500        6.0898861E-18
   6.338000        6.0937287E-18
   6.499500        6.0968154E-18
   6.661000        6.0989218E-18
   6.822500        6.1005918E-18
   6.984000        6.1023984E-18
   7.145500        6.1043125E-18
   7.307000        6.1058138E-18
   7.468500        6.1065558E-18
   7.630000        6.1068226E-18
   7.791500        6.1072684E-18
   7.953000        6.1082470E-18
   8.114500        6.1094741E-18
   8.276000        6.1104043E-18
   8.437500        6.1108981E-18
   8.599000        6.1114238E-18
   8.760500        6.1125434E-18
   8.922000        6.1142209E-18
   9.083500        6.1157144E-18
   9.245000        6.1162041E-18
   9.406500        6.1155402E-18
   9.568000        6.1143466E-18
   9.729500        6.1133801E-18
   9.891000        6.1128308E-18
   10.05250        6.1122861E-18
   10.21400        6.1113737E-18
   10.37550        6.1103646E-18
   10.53700        6.1100469E-18
   10.69850        6.1109415E-18
   10.86000        6.1126827E-18
   11.02150        6.1142275E-18
   11.18300        6.1147478E-18
   11.34450        6.1143491E-18
   11.50600        6.1139107E-18
   11.66750        6.1142316E-18
   11.82900        6.1153289E-18
   11.99050        6.1165626E-18
   12.15200        6.1173849E-18
   12.31350        6.1179370E-18
   12.47500        6.1188965E-18
   12.63650        6.1207912E-18
   12.79800        6.1235002E-18
   12.95950        6.1264239E-18
   13.12100        6.1290717E-18
   13.28250        6.1314031E-18
   13.44400        6.1335839E-18
   13.60550        6.1355080E-18
   13.76700        6.1366946E-18
   13.92850        6.1367380E-18
   14.09000        6.1358260E-18
   14.25150        6.1346982E-18
   14.41300        6.1339992E-18
   14.57450        6.1336580E-18
   14.73600        6.1329603E-18
   14.89750        6.1313150E-18
   15.05900        6.1289786E-18
   15.22050        6.1269979E-18
   15.38200        6.1263672E-18
   15.54350        6.1271969E-18
   15.70500        6.1286651E-18
   15.86650        6.1297963E-18
   16.02800        6.1303058E-18
   16.18950        6.1307231E-18
   16.35100        6.1317278E-18
   16.51250        6.1334206E-18
   16.67400        6.1352412E-18
   16.83550        6.1365726E-18
   16.99700        6.1373658E-18
   17.15850        6.1381669E-18
   17.32000        6.1395562E-18
   17.48150        6.1416175E-18
   17.64300        6.1439626E-18
   17.80450        6.1462158E-18
   17.96600        6.1483950E-18
   18.12750        6.1507475E-18
   18.28900        6.1532584E-18
   18.45050        6.1554314E-18
   18.61200        6.1566499E-18
   18.77350        6.1567955E-18
   18.93500        6.1564427E-18
   19.09650        6.1563666E-18
   19.25800        6.1568248E-18
   19.41950        6.1573517E-18
   19.58100        6.1573062E-18
   19.74250        6.1566234E-18
   19.90400        6.1559766E-18
   20.06550        6.1561254E-18
   20.22700        6.1570833E-18
   20.38850        6.1579692E-18
   20.55000        6.1577571E-18
   20.71150        6.1562226E-18
   20.87300        6.1541687E-18
   21.03450        6.1526786E-18
   21.19600        6.1521314E-18
   21.35750        6.1519383E-18
   21.51900        6.1512434E-18
   21.68050        6.1498670E-18
   21.84200        6.1485274E-18
   22.00350        6.1481547E-18
   22.16500        6.1490047E-18
   22.32650        6.1504886E-18
   22.48800        6.1518229E-18
   22.64950        6.1527994E-18
   22.81100        6.1538573E-18
   22.97250        6.1554360E-18
   23.13400        6.1573567E-18
   23.29550        6.1589304E-18
   23.45700        6.1596633E-18
   23.61850        6.1597663E-18
   23.78000        6.1598879E-18
   23.94150        6.1603643E-18
   24.10300        6.1608474E-18
   24.26450        6.1607783E-18
   24.42600        6.1602163E-18
   24.58750        6.1600541E-18
   24.74900        6.1612742E-18
   24.91050        6.1639357E-18
   25.07200        6.1669698E-18
   25.23350        6.1690903E-18
   25.39500        6.1699543E-18
   25.55650        6.1704071E-18
   25.71800        6.1715437E-18
   25.87950        6.1735223E-18
   26.04100        6.1753603E-18
   26.20250        6.1759265E-18
   26.36400        6.1751266E-18
   26.52550        6.1740542E-18
   26.68700        6.1739677E-18
   26.84850        6.1751378E-18
   27.01000        6.1767251E-18
   27.17150        6.1777335E-18
   27.33300        6.1779837E-18
   27.49450        6.1780859E-18
   27.65600        6.1785276E-18
   27.81750        6.1789573E-18
   27.97900        6.1785123E-18
   28.14050        6.1768447E-18
   28.30200        6.1746969E-18
   28.46350        6.1733196E-18
   28.62500        6.1732894E-18
   28.78650        6.1739768E-18
   28.94800        6.1742630E-18
   29.10950        6.1737903E-18
   29.27100        6.1734177E-18
   29.43250        6.1743702E-18
   29.59400        6.1769592E-18
   29.75550        6.1801981E-18
   29.91700        6.1827338E-18
   30.07850        6.1841069E-18
   30.24000        6.1850420E-18
   30.40150        6.1865057E-18
   30.56300        6.1885724E-18
   30.72450        6.1903265E-18
   30.88600        6.1908844E-18
   31.04750        6.1904212E-18
   31.20900        6.1900651E-18
   31.37050        6.1907541E-18
   31.53200        6.1922761E-18
   31.69350        6.1935334E-18
   31.85500        6.1937597E-18
   32.01650        6.1933846E-18
   32.17800        6.1936000E-18
   32.33950        6.1950567E-18
   32.50100        6.1970833E-18
   32.66250        6.1982699E-18
   32.82400        6.1978228E-18
   32.98550        6.1962971E-18
   33.14700        6.1949674E-18
   33.30850        6.1945372E-18
   33.47000        6.1945571E-18
   33.63150        6.1941290E-18
   33.79300        6.1930917E-18
   33.95450        6.1923634E-18
   34.11600        6.1930243E-18
   34.27750        6.1951101E-18
   34.43900        6.1974113E-18
   34.60050        6.1985590E-18
   34.76200        6.1982782E-18
   34.92350        6.1975432E-18
   35.08500        6.1974803E-18
   35.24650        6.1981996E-18
   35.40800        6.1987579E-18
   35.56950        6.1982608E-18
   35.73100        6.1968955E-18
   35.89250        6.1958086E-18
   36.05400        6.1959893E-18
   36.21550        6.1973616E-18
   36.37700        6.1990288E-18
   36.53850        6.2003432E-18
   36.70000        6.2015852E-18
   36.86150        6.2034844E-18
   37.02300        6.2061372E-18
   37.18450        6.2085790E-18
   37.34600        6.2096014E-18
   37.50750        6.2090063E-18
   37.66900        6.2079260E-18
   37.83050        6.2077746E-18
   37.99200        6.2088297E-18
   38.15350        6.2099141E-18
   38.31500        6.2095663E-18
   38.47650        6.2075451E-18
   38.63800        6.2051665E-18
   38.79950        6.2041222E-18
   38.96100        6.2049547E-18
   39.12250        6.2066889E-18
   39.28400        6.2079049E-18
   39.44550        6.2080939E-18
   39.60700        6.2079351E-18
   39.76850        6.2083123E-18
   39.93000        6.2092424E-18
   40.09150        6.2098773E-18
   40.25300        6.2095274E-18
   40.41450        6.2085249E-18
   40.57600        6.2079314E-18
   40.73750        6.2084095E-18
   40.89900        6.2095257E-18
   41.06050        6.2102690E-18
   41.22200        6.2102495E-18
   41.38350        6.2102446E-18
   41.54500        6.2114324E-18
   41.70650        6.2140843E-18
   41.86800        6.2171188E-18
   42.02950        6.2190445E-18
   42.19100        6.2193663E-18
   42.35250        6.2189990E-18
   42.51400        6.2192538E-18
   42.67550        6.2204780E-18
   42.83700        6.2217738E-18
   42.99850        6.2220732E-18
   43.16000        6.2213999E-18
   43.32150        6.2209355E-18
   43.48300        6.2218143E-18
   43.64450        6.2239146E-18
   43.80600        6.2259349E-18
   43.96750        6.2266827E-18
   44.12900        6.2262211E-18
   44.29050        6.2256917E-18
   44.45200        6.2260263E-18
   44.61350        6.2269325E-18
   44.77500        6.2272175E-18
   44.93650        6.2260838E-18
   45.09800        6.2239956E-18
   45.25950        6.2222168E-18
   45.42100        6.2215455E-18
   45.58250        6.2216241E-18
   45.74400        6.2215277E-18
   45.90550        6.2209326E-18
   46.06700        6.2205496E-18
   46.22850        6.2213441E-18
   46.39000        6.2234125E-18
   46.55150        6.2257654E-18
   46.71300        6.2272882E-18
   46.87450        6.2278432E-18
   47.03600        6.2283147E-18
   47.19750        6.2295270E-18
   47.35900        6.2312215E-18
   47.52050        6.2322285E-18
   47.68200        6.2316942E-18
   47.84350        6.2300729E-18
   48.00500        6.2288036E-18
   48.16650        6.2289674E-18
   48.32800        6.2303149E-18
   48.48950        6.2316429E-18
   48.65100        6.2321069E-18
   48.81250        6.2320706E-18
   48.97400        6.2326314E-18
   49.13550        6.2343536E-18
   49.29700        6.2365597E-18
   49.45850        6.2379245E-18
   49.62000        6.2377235E-18
   49.78150        6.2364513E-18
   49.94300        6.2352176E-18
   50.10450        6.2346373E-18
   50.26600        6.2343879E-18
   50.42750        6.2338436E-18
   50.58900        6.2329850E-18
   50.75050        6.2325408E-18
   50.91200        6.2332009E-18
   51.07350        6.2347990E-18
   51.23500        6.2363917E-18
   51.39650        6.2371701E-18
   51.55800        6.2372206E-18
   51.71950        6.2373004E-18
   51.88100        6.2378769E-18
   52.04250        6.2384853E-18
   52.20400        6.2381346E-18
   52.36550        6.2363707E-18
   52.52700        6.2338701E-18
   52.68850        6.2319212E-18
   52.85000        6.2313116E-18
   53.01150        6.2317434E-18
   53.17300        6.2323555E-18
   53.33450        6.2327414E-18
   53.49600        6.2333734E-18
   53.65750        6.2350004E-18
   53.81900        6.2377074E-18
   53.98050        6.2406633E-18
   54.14200        6.2428466E-18
   54.30350        6.2439774E-18
   54.46500        6.2446933E-18
   54.62650        6.2457823E-18
   54.78800        6.2473060E-18
   54.94950        6.2485269E-18
   55.11100        6.2487052E-18
   55.27250        6.2479140E-18
   55.43400        6.2470367E-18
   55.59550        6.2469548E-18
   55.75700        6.2477878E-18
   55.91850        6.2489049E-18
   56.08000        6.2496175E-18
   56.24150        6.2497582E-18
   56.40300        6.2495865E-18
   56.56450        6.2492403E-18
   56.72600        6.2484545E-18
   56.88750        6.2468949E-18
   57.04900        6.2447260E-18
   57.21050        6.2426953E-18
   57.37200        6.2415471E-18
   57.53350        6.2413528E-18
   57.69500        6.2414959E-18
   57.85650        6.2413871E-18
   58.01800        6.2411910E-18
   58.17950        6.2417754E-18
   58.34100        6.2438703E-18
   58.50250        6.2472518E-18
   58.66400        6.2507657E-18
   58.82550        6.2531802E-18
   58.98700        6.2540669E-18
   59.14850        6.2539123E-18
   59.31000        6.2534701E-18
   59.47150        6.2530776E-18
   59.63300        6.2525884E-18
   59.79450        6.2518584E-18
   59.95600        6.2511536E-18
   60.11750        6.2509927E-18
   60.27900        6.2516350E-18
   60.44050        6.2528121E-18
   60.60200        6.2540148E-18
   60.76350        6.2550182E-18
   60.92500        6.2560563E-18
   61.08650        6.2574476E-18
   61.24800        6.2590983E-18
   61.40950        6.2604437E-18
   61.57100        6.2609193E-18
   61.73250        6.2604631E-18
   61.89400        6.2595499E-18
   62.05550        6.2587302E-18
   62.21700        6.2581954E-18
   62.37850        6.2578050E-18
   62.54000        6.2574828E-18
   62.70150        6.2574791E-18
   62.86300        6.2581524E-18
   63.02450        6.2595102E-18
   63.18600        6.2610347E-18
   63.34750        6.2620451E-18
   63.50900        6.2622573E-18
   63.67050        6.2619818E-18
   63.83200        6.2617399E-18
   63.99350        6.2616911E-18
   64.15500        6.2614441E-18
   64.31650        6.2604193E-18
   64.47800        6.2584063E-18
   64.63950        6.2557970E-18
   64.80100        6.2533291E-18
   64.96250        6.2516507E-18
   65.12400        6.2510750E-18
   65.28550        6.2516110E-18
   65.44700        6.2530884E-18
   65.60850        6.2551915E-18
   65.77000        6.2574596E-18
   65.93150        6.2594432E-18
   66.09300        6.2609714E-18
   66.25450        6.2622779E-18
   66.41600        6.2637743E-18
   66.57750        6.2656181E-18
   66.73900        6.2674830E-18
   66.90050        6.2688131E-18
   67.06200        6.2693437E-18
   67.22350        6.2693834E-18
   67.38500        6.2695658E-18
   67.54650        6.2702813E-18
   67.70800        6.2713256E-18
   67.86950        6.2720883E-18
   68.03100        6.2720742E-18
   68.19250        6.2712483E-18
   68.35400        6.2699294E-18
   68.51550        6.2684098E-18
   68.67700        6.2667447E-18
   68.83850        6.2648782E-18
   69.00000        6.2629157E-18
   69.16150        6.2611935E-18
   69.32300        6.2600847E-18
   69.48450        6.2597629E-18
   69.64600        6.2601765E-18
   69.80750        6.2612146E-18
   69.96900        6.2628185E-18
   70.13050        6.2649034E-18
   70.29200        6.2672266E-18
   70.45350        6.2694252E-18
   70.61500        6.2712586E-18
   70.77650        6.2727918E-18
   70.93800        6.2742501E-18
   71.09950        6.2756468E-18
   71.26100        6.2765667E-18
   71.42250        6.2764107E-18
   71.58400        6.2749466E-18
   71.74550        6.2726280E-18
   71.90700        6.2703554E-18
   72.06850        6.2688487E-18
   72.23000        6.2682080E-18
   72.39150        6.2680318E-18
   72.55300        6.2679330E-18
   72.71450        6.2679090E-18
   72.87600        6.2682345E-18
   73.03750        6.2690459E-18
   73.19900        6.2700989E-18
   73.36050        6.2709542E-18
   73.52200        6.2713790E-18
   73.68350        6.2715089E-18
   73.84500        6.2716164E-18
   74.00650        6.2717628E-18
   74.16800        6.2717450E-18
   74.32950        6.2714009E-18
   74.49100        6.2709104E-18
   74.65250        6.2707396E-18
   74.81400        6.2712429E-18
   74.97550        6.2723315E-18
   75.13700        6.2735454E-18
   75.29850        6.2744358E-18
   75.46000        6.2748668E-18
   75.62150        6.2749483E-18
   75.78300        6.2747522E-18
   75.94450        6.2741885E-18
   76.10600        6.2732149E-18
   76.26750        6.2721094E-18
   76.42900        6.2714046E-18
   76.59050        6.2714311E-18
   76.75200        6.2719282E-18
   76.91350        6.2721834E-18
   77.07500        6.2716942E-18
   77.23650        6.2707297E-18
   77.39800        6.2702193E-18
   77.55950        6.2709803E-18
   77.72100        6.2729912E-18
   77.88250        6.2753850E-18
   78.04400        6.2771800E-18
   78.20550        6.2780663E-18
   78.36700        6.2785238E-18
   78.52850        6.2792149E-18
   78.69000        6.2802960E-18
   78.85150        6.2813275E-18
   79.01300        6.2818110E-18
   79.17450        6.2817370E-18
   79.33600        6.2815504E-18
   79.49750        6.2816187E-18
   79.65900        6.2818106E-18
   79.82050        6.2816575E-18
   79.98200        6.2809180E-18
   80.14350        6.2798977E-18
   80.30500        6.2791454E-18
   80.46650        6.2788356E-18
   80.62800        6.2785114E-18
   80.78950        6.2775034E-18
   80.95100        6.2756175E-18
   81.11250        6.2733630E-18
   81.27400        6.2715002E-18
   81.43550        6.2703856E-18
   81.59700        6.2698177E-18
   81.75850        6.2695133E-18
   81.92000        6.2696109E-18
   82.08150        6.2705634E-18
   82.24300        6.2724978E-18
   82.40450        6.2747725E-18
   82.56600        6.2763607E-18
   82.72750        6.2767664E-18
   82.88900        6.2765559E-18
   83.05050        6.2768491E-18
   83.21200        6.2782057E-18
   83.37350        6.2799858E-18
   83.53500        6.2808903E-18
   83.69650        6.2801984E-18
   83.85800        6.2784861E-18
   84.01950        6.2771105E-18
   84.18100        6.2769658E-18
   84.34250        6.2777661E-18
   84.50400        6.2785155E-18
   84.66550        6.2786177E-18
   84.82700        6.2784349E-18
   84.98850        6.2787653E-18
   85.15000        6.2798642E-18
   85.31150        6.2811050E-18
   85.47300        6.2816323E-18
   85.63450        6.2812700E-18
   85.79600        6.2806658E-18
   85.95750        6.2805264E-18
   86.11900        6.2807998E-18
   86.28050        6.2807245E-18
   86.44200        6.2797174E-18
   86.60350        6.2781135E-18
   86.76500        6.2769257E-18
   86.92650        6.2768620E-18
   87.08800        6.2776569E-18
   87.24950        6.2784485E-18
   87.41100        6.2787587E-18
   87.57250        6.2789729E-18
   87.73400        6.2797645E-18
   87.89550        6.2811323E-18
   88.05700        6.2821733E-18
   88.21850        6.2819603E-18
   88.38000        6.2806248E-18
   88.54150        6.2794287E-18
   88.70300        6.2796281E-18
   88.86450        6.2812311E-18
   89.02600        6.2829537E-18
   89.18750        6.2834691E-18
   89.34900        6.2827139E-18
   89.51050        6.2819148E-18
   89.67200        6.2823176E-18
   89.83350        6.2839232E-18
   89.99500        6.2855230E-18
   90.15650        6.2859527E-18
   90.31800        6.2852376E-18
   90.47950        6.2844613E-18
   90.64100        6.2845556E-18
   90.80250        6.2853389E-18
   90.96400        6.2857914E-18
   91.12550        6.2852165E-18
   91.28700        6.2840113E-18
   91.44850        6.2832263E-18
   91.61000        6.2834352E-18
   91.77150        6.2841577E-18
   91.93300        6.2844348E-18
   92.09450        6.2838996E-18
   92.25600        6.2831308E-18
   92.41750        6.2829380E-18
   92.57900        6.2834000E-18
   92.74050        6.2837644E-18
   92.90200        6.2833417E-18
   93.06350        6.2823743E-18
   93.22500        6.2818482E-18
   93.38650        6.2823842E-18
   93.54800        6.2834285E-18
   93.70950        6.2837296E-18
   93.87100        6.2827010E-18
   94.03250        6.2812506E-18
   94.19400        6.2810909E-18
   94.35550        6.2831076E-18
   94.51700        6.2863828E-18
   94.67850        6.2888995E-18
   94.84000        6.2893052E-18
   95.00150        6.2880405E-18
   95.16300        6.2867836E-18
   95.32450        6.2868067E-18
   95.48600        6.2878842E-18
   95.64750        6.2887254E-18
   95.80900        6.2883627E-18
   95.97050        6.2870251E-18
   96.13200        6.2856996E-18
   96.29350        6.2850205E-18
   96.45500        6.2847247E-18
   96.61650        6.2841937E-18
   96.77800        6.2833578E-18
   96.93950        6.2828590E-18
   97.10100        6.2832854E-18
   97.26250        6.2843579E-18
   97.42400        6.2850486E-18
   97.58550        6.2845829E-18
   97.74700        6.2832701E-18
   97.90850        6.2822035E-18
   98.07000        6.2821092E-18
   98.23150        6.2825555E-18
   98.39300        6.2824107E-18
   98.55450        6.2810789E-18
   98.71600        6.2792099E-18
   98.87750        6.2780858E-18
   99.03900        6.2783294E-18
   99.20050        6.2793042E-18
   99.36200        6.2798812E-18
   99.52350        6.2797596E-18
   99.68500        6.2799172E-18
   99.84650        6.2816352E-18
   100.0080        6.2850411E-18
   100.1695        6.2887039E-18
   100.3310        6.2907876E-18
   100.4925        6.2906871E-18
   100.6540        6.2895381E-18
   100.8155        6.2891121E-18
   100.9770        6.2901994E-18
   101.1385        6.2920453E-18
   101.3000        6.2932716E-18
   101.4615        6.2932368E-18
   101.6230        6.2924688E-18
   101.7845        6.2918707E-18
   101.9460        6.2917066E-18
   102.1075        6.2914530E-18
   102.2690        6.2905741E-18
   102.4305        6.2892254E-18
   102.5920        6.2880355E-18
   102.7535        6.2872423E-18
   102.9150        6.2862459E-18
   103.0765        6.2842586E-18
   103.2380        6.2813991E-18
   103.3995        6.2789853E-18
   103.5610        6.2785159E-18
   103.7225        6.2802766E-18
   103.8840        6.2830112E-18
   104.0455        6.2850763E-18
   104.2070        6.2859676E-18
   104.3685        6.2866678E-18
   104.5300        6.2884843E-18
   104.6915        6.2915630E-18
   104.8530        6.2946137E-18
   105.0145        6.2961092E-18
   105.1760        6.2957275E-18
   105.3375        6.2945483E-18
   105.4990        6.2938465E-18
   105.6605        6.2937989E-18
   105.8220        6.2934523E-18
   105.9835        6.2919349E-18
   106.1450        6.2895575E-18
   106.3065        6.2876108E-18
   106.4680        6.2870859E-18
   106.6295        6.2877071E-18
   106.7910        6.2882874E-18
   106.9525        6.2879747E-18
   107.1140        6.2870272E-18
   107.2755        6.2863386E-18
   107.4370        6.2863013E-18
   107.5985        6.2863113E-18
   107.7600        6.2854928E-18
   107.9215        6.2838252E-18
   108.0830        6.2824016E-18
   108.2445        6.2824301E-18
   108.4060        6.2840237E-18
   108.5675        6.2860668E-18
   108.7290        6.2873395E-18
   108.8905        6.2877133E-18
   109.0520        6.2881551E-18
   109.2135        6.2895402E-18
   109.3750        6.2915655E-18
   109.5365        6.2929018E-18
   109.6980        6.2924378E-18
   109.8595        6.2903111E-18
   110.0210        6.2877067E-18
   110.1825        6.2856917E-18
   110.3440        6.2843405E-18
   110.5055        6.2830228E-18
   110.6670        6.2814292E-18
   110.8285        6.2801422E-18
   110.9900        6.2800847E-18
   111.1515        6.2814520E-18
   111.3130        6.2833417E-18
   111.4745        6.2845308E-18
   111.6360        6.2846259E-18
   111.7975        6.2843678E-18
   111.9590        6.2848008E-18
   112.1205        6.2861781E-18
   112.2820        6.2877344E-18
   112.4435        6.2885140E-18
   112.6050        6.2883635E-18
   112.7665        6.2880574E-18
   112.9280        6.2884950E-18
   113.0895        6.2898367E-18
   113.2510        6.2914634E-18
   113.4125        6.2927360E-18
   113.5740        6.2936732E-18
   113.7355        6.2947990E-18
   113.8970        6.2963628E-18
   114.0585        6.2978397E-18
   114.2200        6.2982884E-18
   114.3815        6.2972259E-18
   114.5430        6.2950889E-18
   114.7045        6.2928216E-18
   114.8660        6.2910291E-18
   115.0275        6.2895559E-18
   115.1890        6.2878709E-18
   115.3505        6.2857980E-18
   115.5120        6.2838124E-18
   115.6735        6.2826092E-18
   115.8350        6.2824483E-18
   115.9965        6.2829608E-18
   116.1580        6.2836014E-18
   116.3195        6.2842057E-18
   116.4810        6.2850159E-18
   116.6425        6.2861549E-18
   116.8040        6.2871777E-18
   116.9655        6.2872898E-18
   117.1270        6.2860941E-18
   117.2885        6.2841283E-18
   117.4500        6.2826080E-18
   117.6115        6.2825153E-18
   117.7730        6.2838355E-18
   117.9345        6.2856189E-18
   118.0960        6.2867960E-18
   118.2575        6.2870115E-18
   118.4190        6.2867497E-18
   118.5805        6.2867356E-18
   118.7420        6.2872179E-18