  -27.90000        9.0596617E-18
  -27.73850        9.0868619E-18
  -27.57700        9.1261166E-18
  -27.41550        9.1576380E-18
  -27.25400        9.1697760E-18
  -27.09250        9.1661844E-18
  -26.93100        9.1626176E-18
  -26.76950        9.1756168E-18
  -26.60800        9.2107686E-18
  -26.44650        9.2584837E-18
  -26.28500        9.3001480E-18
  -26.12350        9.3204817E-18
  -25.96200        9.3177578E-18
  -25.80050        9.3049861E-18
  -25.63900        9.3012580E-18
  -25.47750        9.3190805E-18
  -25.31600        9.3562118E-18
  -25.15450        9.3974327E-18
  -24.99300        9.4249844E-18
  -24.83150        9.4305886E-18
  -24.67000        9.4209287E-18
  -24.50850        9.4129638E-18
  -24.34700        9.4223134E-18
  -24.18550        9.4526412E-18
  -24.02400        9.4932202E-18
  -23.86250        9.5262826E-18
  -23.70100        9.5391105E-18
  -23.53950        9.5326353E-18
  -23.37800        9.5207397E-18
  -23.21650        9.5207736E-18
  -23.05500        9.5417807E-18
  -22.89350        9.5784123E-18
  -22.73200        9.6146205E-18
  -22.57050        9.6345556E-18
  -22.40900        9.6332495E-18
  -22.24750        9.6198591E-18
  -22.08600        9.6113507E-18
  -21.92450        9.6209807E-18
  -21.76300        9.6494117E-18
  -21.60150        9.6844486E-18
  -21.44000        9.7095072E-18
  -21.27850        9.7150378E-18
  -21.11700        9.7051157E-18
  -20.95550        9.6947412E-18
  -20.79400        9.6996663E-18
  -20.63250        9.7256298E-18
  -20.47100        9.7642955E-18
  -20.30950        9.7986591E-18
  -20.14800        9.8143069E-18
  -19.98650        9.8089459E-18
  -19.82500        9.7938077E-18
  -19.66350        9.7859834E-18
  -19.50200        9.7969047E-18
  -19.34050        9.8247443E-18
  -19.17900        9.8558545E-18
  -19.01750        9.8742452E-18
  -18.85600        9.8726496E-18
  -18.69450        9.8576851E-18
  -18.53300        9.8456140E-18
  -18.37150        9.8515441E-18
  -18.21000        9.8793059E-18
  -18.04850        9.9187872E-18
  -17.88700        9.9524808E-18
  -17.72550        9.9668861E-18
  -17.56400        9.9611645E-18
  -17.40250        9.9473473E-18
  -17.24100        9.9420194E-18
  -17.07950        9.9551137E-18
  -16.91800        9.9832974E-18
  -16.75650        1.0012374E-17
  -16.59500        1.0027039E-17
  -16.43350        1.0021421E-17
  -16.27200        1.0003316E-17
  -16.11050        9.9892655E-18
  -15.94900        9.9937703E-18
  -15.78750        1.0019870E-17
  -15.62600        1.0057366E-17
  -15.46450        1.0089779E-17
  -15.30300        1.0105302E-17
  -15.14150        1.0104364E-17
  -14.98000        1.0098825E-17
  -14.81850        1.0103535E-17
  -14.65700        1.0126036E-17
  -14.49550        1.0161364E-17
  -14.33400        1.0195348E-17
  -14.17250        1.0214062E-17
  -14.01100        1.0213016E-17
  -13.84950        1.0199989E-17
  -13.68800        1.0189679E-17
  -13.52650        1.0193893E-17
  -13.36500        1.0213830E-17
  -13.20350        1.0239568E-17
  -13.04200        1.0256994E-17
  -12.88050        1.0257473E-17
  -12.71900        1.0243762E-17
  -12.55750        1.0228226E-17
  -12.39600        1.0224593E-17
  -12.23450        1.0238826E-17
  -12.07300        1.0265277E-17
  -11.91150        1.0290692E-17
  -11.75000        1.0303320E-17
  -11.58850        1.0300912E-17
  -11.42700        1.0292162E-17
  -11.26550        1.0290626E-17
  -11.10400        1.0305288E-17
  -10.94250        1.0334203E-17
  -10.78100        1.0365556E-17
  -10.61950        1.0385430E-17
  -10.45800        1.0387010E-17
  -10.29650        1.0375039E-17
  -10.13500        1.0362531E-17
  -9.973500        1.0362050E-17
  -9.812000        1.0377422E-17
  -9.650500        1.0401426E-17
  -9.489000        1.0420979E-17
  -9.327500        1.0426272E-17
  -9.166000        1.0417695E-17
  -9.004500        1.0405874E-17
  -8.843000        1.0404739E-17
  -8.681500        1.0422252E-17
  -8.520000        1.0454970E-17
  -8.358500        1.0490150E-17
  -8.197000        1.0513992E-17
  -8.035500        1.0520571E-17
  -7.874000        1.0515477E-17
  -7.712500        1.0511770E-17
  -7.551000        1.0520981E-17
  -7.389500        1.0545251E-17
  -7.228000        1.0575905E-17
  -7.066500        1.0599378E-17
  -6.905000        1.0606451E-17
  -6.743500        1.0598555E-17
  -6.582000        1.0586893E-17
  -6.420500        1.0585038E-17
  -6.259000        1.0600002E-17
  -6.097500        1.0627717E-17
  -5.936000        1.0655856E-17
  -5.774500        1.0672017E-17
  -5.613000        1.0671786E-17
  -5.451500        1.0661394E-17
  -5.290000        1.0653309E-17
  -5.128500        1.0657819E-17
  -4.967000        1.0676203E-17
  -4.805500        1.0700001E-17
  -4.644000        1.0716794E-17
  -4.482500        1.0718584E-17
  -4.321000        1.0707199E-17
  -4.159500        1.0693116E-17
  -3.998000        1.0688532E-17
  -3.836500        1.0699276E-17
  -3.675000        1.0721034E-17
  -3.513500        1.0742378E-17
  -3.352000        1.0752544E-17
  -3.190500        1.0748700E-17
  -3.029000        1.0737778E-17
  -2.867500        1.0731693E-17
  -2.706000        1.0739248E-17
  -2.544500        1.0760231E-17
  -2.383000        1.0785662E-17
  -2.221500        1.0803942E-17
  -2.060000        1.0808662E-17
  -1.898500        1.0802777E-17
  -1.737000        1.0796404E-17
  -1.575500        1.0799819E-17
  -1.414000        1.0816456E-17
  -1.252500        1.0840596E-17
  -1.091000        1.0861230E-17
 -0.9295000        1.0869455E-17
 -0.7680000        1.0864424E-17
 -0.6065000        1.0853907E-17
 -0.4450000        1.0849138E-17
 -0.2835000        1.0857397E-17
 -0.1220000        1.0877298E-17
  3.9500002E-02    1.0899900E-17
  0.2010000        1.0914898E-17
  0.3625000        1.0917676E-17
  0.5240000        1.0912450E-17
  0.6855000        1.0909387E-17
  0.8470000        1.0917611E-17
   1.008500        1.0938864E-17
   1.170000        1.0966119E-17
   1.331500        1.0988113E-17
   1.493000        1.0996737E-17
   1.654500        1.0992301E-17
   1.816000        1.0983170E-17
   1.977500        1.0980043E-17
   2.139000        1.0988821E-17
   2.300500        1.1006844E-17
   2.462000        1.1024969E-17
   2.623500        1.1034004E-17
   2.785000        1.1031127E-17
   2.946500        1.1021991E-17
   3.108000        1.1017104E-17
   3.269500        1.1024931E-17
   3.431000        1.1046265E-17
   3.592500        1.1073646E-17
   3.754000        1.1096194E-17
   3.915500        1.1106665E-17
   4.077000        1.1106074E-17
   4.238500        1.1102795E-17
   4.400000        1.1106748E-17
   4.561500        1.1122571E-17
   4.723000        1.1146350E-17
   4.884500        1.1168155E-17
   5.046000        1.1178676E-17
   5.207500        1.1175505E-17
   5.369000        1.1164794E-17
   5.530500        1.1157163E-17
   5.692000        1.1160626E-17
   5.853500        1.1175321E-17
   6.015000        1.1193571E-17
   6.176500        1.1205184E-17
   6.338000        1.1204385E-17
   6.499500        1.1193717E-17
   6.661000        1.1182352E-17
   6.822500        1.1180005E-17
   6.984000        1.1190566E-17
   7.145500        1.1209674E-17
   7.307000        1.1227772E-17
   7.468500        1.1236531E-17
   7.630000        1.1234333E-17
   7.791500        1.1227203E-17
   7.953000        1.1224637E-17
   8.114500        1.1233159E-17
   8.276000        1.1251901E-17
   8.437500        1.1273143E-17
   8.599000        1.1287431E-17
   8.760500        1.1289842E-17
   8.922000        1.1283205E-17
   9.083500        1.1276171E-17
   9.245000        1.1277431E-17
   9.406500        1.1290017E-17
   9.568000        1.1309481E-17
   9.729500        1.1327123E-17
   9.891000        1.1336026E-17
   10.05250        1.1335752E-17
   10.21400        1.1332565E-17
   10.37550        1.1335037E-17
   10.53700        1.1348070E-17
   10.69850        1.1369440E-17
   10.86000        1.1391183E-17
   11.02150        1.1404871E-17
   11.18300        1.1407195E-17
   11.34450        1.1402076E-17
   11.50600        1.1397937E-17
   11.66750        1.1401982E-17
   11.82900        1.1415399E-17
   11.99050        1.1432683E-17
   12.15200        1.1445532E-17
   12.31350        1.1448646E-17
   12.47500        1.1443459E-17
   12.63650        1.1437244E-17
   12.79800        1.1438175E-17
   12.95950        1.1449698E-17
   13.12100        1.1468047E-17
   13.28250        1.1484677E-17
   13.44400        1.1491986E-17
   13.60550        1.1488498E-17
   13.76700        1.1479951E-17
   13.92850        1.1475506E-17
   14.09000        1.1481604E-17
   14.25150        1.1497643E-17
   14.41300        1.1516445E-17
   14.57450        1.1529194E-17
   14.73600        1.1531499E-17
   14.89750        1.1526443E-17
   15.05900        1.1522531E-17
   15.22050        1.1527934E-17
   15.38200        1.1544911E-17
   15.54350        1.1568207E-17
   15.70500        1.1588489E-17
   15.86650        1.1598517E-17
   16.02800        1.1597890E-17
   16.18950        1.1593217E-17
   16.35100        1.1593623E-17
   16.51250        1.1604644E-17
   16.67400        1.1624564E-17
   16.83550        1.1645594E-17
   16.99700        1.1659068E-17
   17.15850        1.1661152E-17
   17.32000        1.1655292E-17
   17.48150        1.1649793E-17
   17.64300        1.1652173E-17
   17.80450        1.1664127E-17
   17.96600        1.1680450E-17
   18.12750        1.1692624E-17
   18.28900        1.1694634E-17
   18.45050        1.1687072E-17
   18.61200        1.1676805E-17
   18.77350        1.1672450E-17
   18.93500        1.1678741E-17
   19.09650        1.1693589E-17
   19.25800        1.1709781E-17
   19.41950        1.1720028E-17
   19.58100        1.1721919E-17
   19.74250        1.1719348E-17
   19.90400        1.1719578E-17
   20.06550        1.1728040E-17
   20.22700        1.1744471E-17
   20.38850        1.1763027E-17
   20.55000        1.1776207E-17
   20.71150        1.1779882E-17
   20.87300        1.1775978E-17
   21.03450        1.1771064E-17
   21.19600        1.1771858E-17
   21.35750        1.1780764E-17
   21.51900        1.1794442E-17
   21.68050        1.1806322E-17
   21.84200        1.1811267E-17
   22.00350        1.1809179E-17
   22.16500        1.1805106E-17
   22.32650        1.1805775E-17
   22.48800        1.1814949E-17
   22.64950        1.1830788E-17
   22.81100        1.1847040E-17
   22.97250        1.1857267E-17
   23.13400        1.1859231E-17
   23.29550        1.1856421E-17
   23.45700        1.1855670E-17
   23.61850        1.1862490E-17
   23.78000        1.1877310E-17
   23.94150        1.1895165E-17
   24.10300        1.1909059E-17
   24.26450        1.1914671E-17
   24.42600        1.1913223E-17
   24.58750        1.1910545E-17
   24.74900        1.1913021E-17
   24.91050        1.1923194E-17
   25.07200        1.1937979E-17
   25.23350        1.1950707E-17
   25.39500        1.1955588E-17
   25.55650        1.1951626E-17
   25.71800        1.1943402E-17
   25.87950        1.1938210E-17
   26.04100        1.1941429E-17
   26.20250        1.1953174E-17
   26.36400        1.1968403E-17
   26.52550        1.1980408E-17
   26.68700        1.1985336E-17
   26.84850        1.1984766E-17
   27.01000        1.1984570E-17
   27.17150        1.1990851E-17
   27.33300        1.2005670E-17
   27.49450        1.2025456E-17
   27.65600        1.2043216E-17
   27.81750        1.2053091E-17
   27.97900        1.2054181E-17
   28.14050        1.2051082E-17
   28.30200        1.2050754E-17
   28.46350        1.2057880E-17
   28.62500        1.2071835E-17
   28.78650        1.2087264E-17
   28.94800        1.2097799E-17
   29.10950        1.2100353E-17
   29.27100        1.2097098E-17
   29.43250        1.2093869E-17
   29.59400        1.2096143E-17
   29.75550        1.2105317E-17
   29.91700        1.2117794E-17
   30.07850        1.2127435E-17
   30.24000        1.2129710E-17
   30.40150        1.2124783E-17
   30.56300        1.2117468E-17
   30.72450        1.2114143E-17
   30.88600        1.2118634E-17
   31.04750        1.2129837E-17
   31.20900        1.2142619E-17
   31.37050        1.2151392E-17
   31.53200        1.2153914E-17
   31.69350        1.2152757E-17
   31.85500        1.2153407E-17
   32.01650        1.2160352E-17
   32.17800        1.2173842E-17
   32.33950        1.2189575E-17
   32.50100        1.2201531E-17
   32.66250        1.2206032E-17
   32.82400        1.2204243E-17
   32.98550        1.2201394E-17
   33.14700        1.2203267E-17
   33.30850        1.2212332E-17
   33.47000        1.2226174E-17
   33.63150        1.2239227E-17
   33.79300        1.2246645E-17
   33.95450        1.2247608E-17
   34.11600        1.2245870E-17
   34.27750        1.2247146E-17
   34.43900        1.2255140E-17
   34.60050        1.2268895E-17
   34.76200        1.2283325E-17
   34.92350        1.2292616E-17
   35.08500        1.2294232E-17
   35.24650        1.2290797E-17
   35.40800        1.2288481E-17
   35.56950        1.2292932E-17
   35.73100        1.2305453E-17
   35.89250        1.2322053E-17
   36.05400        1.2336093E-17
   36.21550        1.2342766E-17
   36.37700        1.2342364E-17
   36.53850        1.2340044E-17
   36.70000        1.2342173E-17
   36.86150        1.2351762E-17
   37.02300        1.2366140E-17
   37.18450        1.2378583E-17
   37.34600        1.2382807E-17
   37.50750        1.2377324E-17
   37.66900        1.2366633E-17
   37.83050        1.2358413E-17
   37.99200        1.2358566E-17
   38.15350        1.2367455E-17
   38.31500        1.2379859E-17
   38.47650        1.2388677E-17
   38.63800        1.2389863E-17
   38.79950        1.2385230E-17
   38.96100        1.2381244E-17
   39.12250        1.2384593E-17
   39.28400        1.2397535E-17
   39.44550        1.2416175E-17
   39.60700        1.2432865E-17
   39.76850        1.2441183E-17
   39.93000        1.2440149E-17
   40.09150        1.2434844E-17
   40.25300        1.2432973E-17
   40.41450        1.2439666E-17
   40.57600        1.2454036E-17
   40.73750        1.2469839E-17
   40.89900        1.2479781E-17
   41.06050        1.2480548E-17
   41.22200        1.2475067E-17
   41.38350        1.2470471E-17
   41.54500        1.2473139E-17
   41.70650        1.2484265E-17
   41.86800        1.2499022E-17
   42.02950        1.2509938E-17
   42.19100        1.2512120E-17
   42.35250        1.2506712E-17
   42.51400        1.2500190E-17
   42.67550        1.2499985E-17
   42.83700        1.2509477E-17
   42.99850        1.2525800E-17
   43.16000        1.2541939E-17
   43.32150        1.2551651E-17
   43.48300        1.2553756E-17
   43.64450        1.2552850E-17
   43.80600        1.2555921E-17
   43.96750        1.2567246E-17
   44.12900        1.2585130E-17
   44.29050        1.2602806E-17
   44.45200        1.2612953E-17
   44.61350        1.2612707E-17
   44.77500        1.2605730E-17
   44.93650        1.2599787E-17
   45.09800        1.2601495E-17
   45.25950        1.2611817E-17
   45.42100        1.2625491E-17
   45.58250        1.2634828E-17
   45.74400        1.2635256E-17
   45.90550        1.2628690E-17
   46.06700        1.2622342E-17
   46.22850        1.2623697E-17
   46.39000        1.2635201E-17
   46.55150        1.2652364E-17
   46.71300        1.2666676E-17
   46.87450        1.2671366E-17
   47.03600        1.2666048E-17
   47.19750        1.2657040E-17
   47.35900        1.2653135E-17
   47.52050        1.2659681E-17
   47.68200        1.2675049E-17
   47.84350        1.2691847E-17
   48.00500        1.2702028E-17
   48.16650        1.2702402E-17
   48.32800        1.2696782E-17
   48.48950        1.2693298E-17
   48.65100        1.2698696E-17
   48.81250        1.2713515E-17
   48.97400        1.2731473E-17
   49.13550        1.2743545E-17
   49.29700        1.2744012E-17
   49.45850        1.2734360E-17
   49.62000        1.2722346E-17
   49.78150        1.2716827E-17
   49.94300        1.2721887E-17
   50.10450        1.2734292E-17
   50.26600        1.2745995E-17
   50.42750        1.2749949E-17
   50.58900        1.2745134E-17
   50.75050        1.2737320E-17
   50.91200        1.2735019E-17
   51.07350        1.2743506E-17
   51.23500        1.2761069E-17
   51.39650        1.2780094E-17
   51.55800        1.2792216E-17
   51.71950        1.2793938E-17
   51.88100        1.2788858E-17
   52.04250        1.2785024E-17
   52.20400        1.2789309E-17
   52.36550        1.2802692E-17
   52.52700        1.2819686E-17
   52.68850        1.2832241E-17
   52.85000        1.2835376E-17
   53.01150        1.2830627E-17
   53.17300        1.2824920E-17
   53.33450        1.2825674E-17
   53.49600        1.2835533E-17
   53.65750        1.2850429E-17
   53.81900        1.2862345E-17
   53.98050        1.2864883E-17
   54.14200        1.2857796E-17
   54.30350        1.2847300E-17
   54.46500        1.2841935E-17
   54.62650        1.2846832E-17
   54.78800        1.2860386E-17
   54.94950        1.2875634E-17
   55.11100        1.2885331E-17
   55.27250        1.2887136E-17
   55.43400        1.2885244E-17
   55.59550        1.2887328E-17
   55.75700        1.2898956E-17
   55.91850        1.2919406E-17
   56.08000        1.2941810E-17
   56.24150        1.2957571E-17
   56.40300        1.2962010E-17
   56.56450        1.2957357E-17
   56.72600        1.2951056E-17
   56.88750        1.2950600E-17
   57.04900        1.2958439E-17
   57.21050        1.2970460E-17
   57.37200        1.2979033E-17
   57.53350        1.2978494E-17
   57.69500        1.2969279E-17
   57.85650        1.2957806E-17
   58.01800        1.2952191E-17
   58.17950        1.2956716E-17
   58.34100        1.2968878E-17
   58.50250        1.2981088E-17
   58.66400        1.2985869E-17
   58.82550        1.2980972E-17
   58.98700        1.2970903E-17
   59.14850        1.2963794E-17
   59.31000        1.2965828E-17
   59.47150        1.2977058E-17
   59.63300        1.2991499E-17
   59.79450        1.3001389E-17
   59.95600        1.3002599E-17
   60.11750        1.2997434E-17
   60.27900        1.2992917E-17
   60.44050        1.2995815E-17
   60.60200        1.3007871E-17
   60.76350        1.3024549E-17
   60.92500        1.3038094E-17
   61.08650        1.3042746E-17
   61.24800        1.3038565E-17
   61.40950        1.3031250E-17
   61.57100        1.3028203E-17
   61.73250        1.3033570E-17
   61.89400        1.3045651E-17
   62.05550        1.3058396E-17
   62.21700        1.3065822E-17
   62.37850        1.3066252E-17
   62.54000        1.3063434E-17
   62.70150        1.3063837E-17
   62.86300        1.3072039E-17
   63.02450        1.3087442E-17
   63.18600        1.3104572E-17
   63.34750        1.3116710E-17
   63.50900        1.3120341E-17
   63.67050        1.3117343E-17
   63.83200        1.3113486E-17
   63.99350        1.3114370E-17
   64.15500        1.3121653E-17
   64.31650        1.3132140E-17
   64.47800        1.3140273E-17
   64.63950        1.3142212E-17
   64.80100        1.3138626E-17
   64.96250        1.3134272E-17
   65.12400        1.3134659E-17
   65.28550        1.3142155E-17
   65.44700        1.3154251E-17
   65.60850        1.3165173E-17
   65.77000        1.3169758E-17
   65.93150        1.3166905E-17
   66.09300        1.3160240E-17
   66.25450        1.3155576E-17
   66.41600        1.3156944E-17
   66.57750        1.3163936E-17
   66.73900        1.3172193E-17
   66.90050        1.3176661E-17
   67.06200        1.3175320E-17
   67.22350        1.3170767E-17
   67.38500        1.3168552E-17
   67.54650        1.3173407E-17
   67.70800        1.3185964E-17
   67.86950        1.3202199E-17
   68.03100        1.3216010E-17
   68.19250        1.3223165E-17
   68.35400        1.3223969E-17
   68.51550        1.3222835E-17
   68.67700        1.3225109E-17
   68.83850        1.3233307E-17
   69.00000        1.3245374E-17
   69.16150        1.3256137E-17
   69.32300        1.3260931E-17
   69.48450        1.3258891E-17
   69.64600        1.3253619E-17
   69.80750        1.3250765E-17
   69.96900        1.3254202E-17
   70.13050        1.3263442E-17
   70.29200        1.3274070E-17
   70.45350        1.3280844E-17
   70.61500        1.3281299E-17
   70.77650        1.3277356E-17
   70.93800        1.3273887E-17
   71.09950        1.3275323E-17
   71.26100        1.3282672E-17
   71.42250        1.3292980E-17
   71.58400        1.3301523E-17
   71.74550        1.3305120E-17
   71.90700        1.3304251E-17
   72.06850        1.3302556E-17
   72.23000        1.3304121E-17
   72.39150        1.3310492E-17
   72.55300        1.3319500E-17
   72.71450        1.3326701E-17
   72.87600        1.3328410E-17
   73.03750        1.3324209E-17
   73.19900        1.3317184E-17
   73.36050        1.3311773E-17
   73.52200        1.3310732E-17
   73.68350        1.3313417E-17
   73.84500        1.3316570E-17
   74.00650        1.3316995E-17
   74.16800        1.3314171E-17
   74.32950        1.3310856E-17
   74.49100        1.3311230E-17
   74.65250        1.3317905E-17
   74.81400        1.3329968E-17
   74.97550        1.3343488E-17
   75.13700        1.3354115E-17
   75.29850        1.3359915E-17
   75.46000        1.3362442E-17
   75.62150        1.3365314E-17
   75.78300        1.3371385E-17
   75.94450        1.3380569E-17
   76.10600        1.3389884E-17
   76.26750        1.3395653E-17
   76.42900        1.3396281E-17
   76.59050        1.3393583E-17
   76.75200        1.3391721E-17
   76.91350        1.3394465E-17
   77.07500        1.3402716E-17
   77.23650        1.3413993E-17
   77.39800        1.3424259E-17
   77.55950        1.3430731E-17
   77.72100        1.3433730E-17
   77.88250        1.3436256E-17
   78.04400        1.3441639E-17
   78.20550        1.3451009E-17
   78.36700        1.3462378E-17
   78.52850        1.3472037E-17
   78.69000        1.3477199E-17
   78.85150        1.3477993E-17
   79.01300        1.3477355E-17
   79.17450        1.3478914E-17
   79.33600        1.3484434E-17
   79.49750        1.3492667E-17
   79.65900        1.3500390E-17
   79.82050        1.3504831E-17
   79.98200        1.3505656E-17
   80.14350        1.3505088E-17
   80.30500        1.3506131E-17
   80.46650        1.3510294E-17
   80.62800        1.3516508E-17
   80.78950        1.3522032E-17
   80.95100        1.3524579E-17
   81.11250        1.3524061E-17
   81.27400        1.3522639E-17
   81.43550        1.3523080E-17
   81.59700        1.3526689E-17
   81.75850        1.3532338E-17
   81.92000        1.3537302E-17
   82.08150        1.3539240E-17
   82.24300        1.3537860E-17
   82.40450        1.3535026E-17
   82.56600        1.3533289E-17
   82.72750        1.3533938E-17
   82.88900        1.3536041E-17
   83.05050        1.3537201E-17
   83.21200        1.3535472E-17
   83.37350        1.3531031E-17
   83.53500        1.3526329E-17
   83.69650        1.3524520E-17
   83.85800        1.3527288E-17
   84.01950        1.3533629E-17
   84.18100        1.3540526E-17
   84.34250        1.3545083E-17
   84.50400        1.3546556E-17
   84.66550        1.3546782E-17
   84.82700        1.3548672E-17
   84.98850        1.3553880E-17
   85.15000        1.3561411E-17
   85.31150        1.3568236E-17
   85.47300        1.3571502E-17
   85.63450        1.3570700E-17
   85.79600        1.3568175E-17
   85.95750        1.3567573E-17
   86.11900        1.3571387E-17
   86.28050        1.3579349E-17
   86.44200        1.3588817E-17
   86.60350        1.3596799E-17
   86.76500        1.3602094E-17
   86.92650        1.3606025E-17
   87.08800        1.3611272E-17
   87.24950        1.3619731E-17
   87.41100        1.3630942E-17
   87.57250        1.3642235E-17
   87.73400        1.3650452E-17
   87.89550        1.3654040E-17
   88.05700        1.3654019E-17
   88.21850        1.3653168E-17
   88.38000        1.3654038E-17
   88.54150        1.3657223E-17
   88.70300        1.3661138E-17
   88.86450        1.3663419E-17
   89.02600        1.3662924E-17
   89.18750        1.3660785E-17
   89.34900        1.3659733E-17
   89.51050        1.3662147E-17
   89.67200        1.3668322E-17
   89.83350        1.3676259E-17
   89.99500        1.3683165E-17
   90.15650        1.3687512E-17
   90.31800        1.3690100E-17
   90.47950        1.3693329E-17
   90.64100        1.3699253E-17
   90.80250        1.3707931E-17
   90.96400        1.3717278E-17
   91.12550        1.3724524E-17
   91.28700        1.3728172E-17
   91.44850        1.3728989E-17
   91.61000        1.3729349E-17
   91.77150        1.3731440E-17
   91.93300        1.3735690E-17
   92.09450        1.3740510E-17
   92.25600        1.3743499E-17
   92.41750        1.3743232E-17
   92.57900        1.3740351E-17
   92.74050        1.3737227E-17
   92.90200        1.3736447E-17
   93.06350        1.3739150E-17
   93.22500        1.3744382E-17
   93.38650        1.3749864E-17
   93.54800        1.3753640E-17
   93.70950        1.3755414E-17
   93.87100        1.3756639E-17
   94.03250        1.3759326E-17
   94.19400        1.3764460E-17
   94.35550        1.3771180E-17
   94.51700        1.3777301E-17
   94.67850        1.3780781E-17
   94.84000        1.3781066E-17
   95.00150        1.3779333E-17
   95.16300        1.3777548E-17
   95.32450        1.3777093E-17
   95.48600        1.3778021E-17
   95.64750        1.3779400E-17
   95.80900        1.3780365E-17
   95.97050        1.3780961E-17
   96.13200        1.3782145E-17
   96.29350        1.3785030E-17
   96.45500        1.3790025E-17
   96.61650        1.3796547E-17
   96.77800        1.3803487E-17
   96.93950        1.3809985E-17
   97.10100        1.3815882E-17
   97.26250        1.3821541E-17
   97.42400        1.3827256E-17
   97.58550        1.3832821E-17
   97.74700        1.3837606E-17
   97.90850        1.3841086E-17
   98.07000        1.3843351E-17
   98.23150        1.3845189E-17
   98.39300        1.3847602E-17
   98.55450        1.3851113E-17
   98.71600        1.3855361E-17
   98.87750        1.3859316E-17
   99.03900        1.3862011E-17
   99.20050        1.3863285E-17
   99.36200        1.3863942E-17
   99.52350        1.3865162E-17
   99.68500        1.3867563E-17
   99.84650        1.3870618E-17
   100.0080        1.3872931E-17
   100.1695        1.3873266E-17
   100.3310        1.3871561E-17
   100.4925        1.3869140E-17
   100.6540        1.3867838E-17
   100.8155        1.3868628E-17
   100.9770        1.3870834E-17
   101.1385        1.3872600E-17
   101.3000        1.3872366E-17
   101.4615        1.3870197E-17
   101.6230        1.3867895E-17
   101.7845        1.3867747E-17
   101.9460        1.3870809E-17
   102.1075        1.3876092E-17
   102.2690        1.3881293E-17
   102.4305        1.3884581E-17
   102.5920        1.3886075E-17
   102.7535        1.3887853E-17
   102.9150        1.3892424E-17
   103.0765        1.3900745E-17
   103.2380        1.3911302E-17
   103.3995        1.3920942E-17
   103.5610        1.3926941E-17
   103.7225        1.3928825E-17
   103.8840        1.3928654E-17
   104.0455        1.3929525E-17
   104.2070        1.3933288E-17
   104.3685        1.3939127E-17
   104.5300        1.3944042E-17
   104.6915        1.3945076E-17
   104.8530        1.3941722E-17
   105.0145        1.3936743E-17
   105.1760        1.3934635E-17
   105.3375        1.3938682E-17
   105.4990        1.3948651E-17
   105.6605        1.3960838E-17
   105.8220        1.3970602E-17
   105.9835        1.3975615E-17
   106.1450        1.3977504E-17
   106.3065        1.3980577E-17
   106.4680        1.3988471E-17
   106.6295        1.4001198E-17
   106.7910        1.4014789E-17
   106.9525        1.4023926E-17
   107.1140        1.4025673E-17
   107.2755        1.4021600E-17
   107.4370        1.4016748E-17
   107.5985        1.4016107E-17
   107.7600        1.4021143E-17
   107.9215        1.4028798E-17
   108.0830        1.4033720E-17
   108.2445        1.4032156E-17
   108.4060        1.4024751E-17
   108.5675        1.4016271E-17
   108.7290        1.4012380E-17
   108.8905        1.4015723E-17
   109.0520        1.4024055E-17
   109.2135        1.4031774E-17
   109.3750        1.4033893E-17
   109.5365        1.4029668E-17
   109.6980        1.4023259E-17
   109.8595        1.4020829E-17
   110.0210        1.4026037E-17
   110.1825        1.4037172E-17
   110.3440        1.4048109E-17
   110.5055        1.4052512E-17
   110.6670        1.4048359E-17
   110.8285        1.4039449E-17
   110.9900        1.4032722E-17
   111.1515        1.4033270E-17
   111.3130        1.4040632E-17
   111.4745        1.4049135E-17
   111.6360        1.4052070E-17
   111.7975        1.4046700E-17
   111.9590        1.4036458E-17
   112.1205        1.4028669E-17
   112.2820        1.4029425E-17
   112.4435        1.4039225E-17
   112.6050        1.4052556E-17
   112.7665        1.4061683E-17
   112.9280        1.4062016E-17
   113.0895        1.4055264E-17
   113.2510        1.4048159E-17
   113.4125        1.4047618E-17
   113.5740        1.4055736E-17
   113.7355        1.4068183E-17
   113.8970        1.4077206E-17
   114.0585        1.4077193E-17
   114.2200        1.4068860E-17
   114.3815        1.4059059E-17
   114.5430        1.4056156E-17
   114.7045        1.4064223E-17
   114.8660        1.4080131E-17
   115.0275        1.4095672E-17
   115.1890        1.4103310E-17
   115.3505        1.4101456E-17
   115.5120        1.4095517E-17
   115.6735        1.4093890E-17
   115.8350        1.4101777E-17
   115.9965        1.4117314E-17
   116.1580        1.4132776E-17
   116.3195        1.4140044E-17
   116.4810        1.4136389E-17
   116.6425        1.4126460E-17
   116.8040        1.4119017E-17
   116.9655        1.4120818E-17
   117.1270        1.4131934E-17
   117.2885        1.4145846E-17
   117.4500        1.4154174E-17
   117.6115        1.4152673E-17
   117.7730        1.4144234E-17
   117.9345        1.4136805E-17
   118.0960        1.4137736E-17
   118.2575        1.4148559E-17
   118.4190        1.4163881E-17
   118.5805        1.4175204E-17
   118.7420        1.4176931E-17