  -27.90000       -1.8369429E-18
  -27.73850       -1.8400856E-18
  -27.57700       -1.8446279E-18
  -27.41550       -1.8482904E-18
  -27.25400       -1.8497202E-18
  -27.09250       -1.8493271E-18
  -26.93100       -1.8489242E-18
  -26.76950       -1.8504295E-18
  -26.60800       -1.8545067E-18
  -26.44650       -1.8600616E-18
  -26.28500       -1.8649356E-18
  -26.12350       -1.8673360E-18
  -25.96200       -1.8670327E-18
  -25.80050       -1.8655214E-18
  -25.63900       -1.8650309E-18
  -25.47750       -1.8670463E-18
  -25.31600       -1.8713367E-18
  -25.15450       -1.8761397E-18
  -24.99300       -1.8793692E-18
  -24.83150       -1.8800273E-18
  -24.67000       -1.8788663E-18
  -24.50850       -1.8778648E-18
  -24.34700       -1.8788829E-18
  -24.18550       -1.8824013E-18
  -24.02400       -1.8871964E-18
  -23.86250       -1.8911659E-18
  -23.70100       -1.8927493E-18
  -23.53950       -1.8919895E-18
  -23.37800       -1.8905161E-18
  -23.21650       -1.8904487E-18
  -23.05500       -1.8929594E-18
  -22.89350       -1.8974562E-18
  -22.73200       -1.9019651E-18
  -22.57050       -1.9044607E-18
  -22.40900       -1.9042527E-18
  -22.24750       -1.9024740E-18
  -22.08600       -1.9013139E-18
  -21.92450       -1.9025133E-18
  -21.76300       -1.9061618E-18
  -21.60150       -1.9106371E-18
  -21.44000       -1.9137402E-18
  -21.27850       -1.9142324E-18
  -21.11700       -1.9127061E-18
  -20.95550       -1.9111820E-18
  -20.79400       -1.9117199E-18
  -20.63250       -1.9150025E-18
  -20.47100       -1.9198676E-18
  -20.30950       -1.9240885E-18
  -20.14800       -1.9258651E-18
  -19.98650       -1.9250133E-18
  -19.82500       -1.9230584E-18
  -19.66350       -1.9221856E-18
  -19.50200       -1.9237636E-18
  -19.34050       -1.9274297E-18
  -19.17900       -1.9313478E-18
  -19.01750       -1.9334704E-18
  -18.85600       -1.9329588E-18
  -18.69450       -1.9308021E-18
  -18.53300       -1.9291843E-18
  -18.37150       -1.9300156E-18
  -18.21000       -1.9336191E-18
  -18.04850       -1.9384899E-18
  -17.88700       -1.9423040E-18
  -17.72550       -1.9434861E-18
  -17.56400       -1.9422447E-18
  -17.40250       -1.9403691E-18
  -17.24100       -1.9399445E-18
  -17.07950       -1.9419037E-18
  -16.91800       -1.9454192E-18
  -16.75650       -1.9485280E-18
  -16.59500       -1.9495274E-18
  -16.43350       -1.9481505E-18
  -16.27200       -1.9457463E-18
  -16.11050       -1.9443827E-18
  -15.94900       -1.9455139E-18
  -15.78750       -1.9490846E-18
  -15.62600       -1.9536308E-18
  -15.46450       -1.9572733E-18
  -15.30300       -1.9589333E-18
  -15.14150       -1.9589965E-18
  -14.98000       -1.9589974E-18
  -14.81850       -1.9605341E-18
  -14.65700       -1.9641441E-18
  -14.49550       -1.9688836E-18
  -14.33400       -1.9729157E-18
  -14.17250       -1.9747097E-18
  -14.01100       -1.9740531E-18
  -13.84950       -1.9721737E-18
  -13.68800       -1.9708949E-18
  -13.52650       -1.9714009E-18
  -13.36500       -1.9734757E-18
  -13.20350       -1.9757354E-18
  -13.04200       -1.9766575E-18
  -12.88050       -1.9756704E-18
  -12.71900       -1.9735371E-18
  -12.55750       -1.9718164E-18
  -12.39600       -1.9718193E-18
  -12.23450       -1.9737888E-18
  -12.07300       -1.9768196E-18
  -11.91150       -1.9795239E-18
  -11.75000       -1.9809582E-18
  -11.58850       -1.9812053E-18
  -11.42700       -1.9812568E-18
  -11.26550       -1.9823143E-18
  -11.10400       -1.9849795E-18
  -10.94250       -1.9888449E-18
  -10.78100       -1.9927366E-18
  -10.61950       -1.9954307E-18
  -10.45800       -1.9963965E-18
  -10.29650       -1.9960921E-18
  -10.13500       -1.9956262E-18
  -9.973500       -1.9959949E-18
  -9.812000       -1.9974160E-18
  -9.650500       -1.9991998E-18
  -9.489000       -2.0002617E-18
  -9.327500       -1.9999039E-18
  -9.166000       -1.9983404E-18
  -9.004500       -1.9965905E-18
  -8.843000       -1.9958398E-18
  -8.681500       -1.9966806E-18
  -8.520000       -1.9987562E-18
  -8.358500       -2.0010239E-18
  -8.197000       -2.0024554E-18
  -8.035500       -2.0026911E-18
  -7.874000       -2.0022285E-18
  -7.712500       -2.0020461E-18
  -7.551000       -2.0029372E-18
  -7.389500       -2.0050014E-18
  -7.228000       -2.0075959E-18
  -7.066500       -2.0097637E-18
  -6.905000       -2.0108535E-18
  -6.743500       -2.0109532E-18
  -6.582000       -2.0108628E-18
  -6.420500       -2.0116187E-18
  -6.259000       -2.0138531E-18
  -6.097500       -2.0173883E-18
  -5.936000       -2.0213250E-18
  -5.774500       -2.0245705E-18
  -5.613000       -2.0264924E-18
  -5.451500       -2.0272869E-18
  -5.290000       -2.0278198E-18
  -5.128500       -2.0290194E-18
  -4.967000       -2.0312295E-18
  -4.805500       -2.0339474E-18
  -4.644000       -2.0361471E-18
  -4.482500       -2.0369753E-18
  -4.321000       -2.0363379E-18
  -4.159500       -2.0349801E-18
  -3.998000       -2.0340185E-18
  -3.836500       -2.0342452E-18
  -3.675000       -2.0356629E-18
  -3.513500       -2.0375347E-18
  -3.352000       -2.0388883E-18
  -3.190500       -2.0391375E-18
  -3.029000       -2.0384220E-18
  -2.867500       -2.0374943E-18
  -2.706000       -2.0372520E-18
  -2.544500       -2.0382094E-18
  -2.383000       -2.0402122E-18
  -2.221500       -2.0425329E-18
  -2.060000       -2.0443097E-18
  -1.898500       -2.0450771E-18
  -1.737000       -2.0450773E-18
  -1.575500       -2.0451290E-18
  -1.414000       -2.0460954E-18
  -1.252500       -2.0482704E-18
  -1.091000       -2.0511174E-18
 -0.9295000       -2.0535681E-18
 -0.7680000       -2.0547123E-18
 -0.6065000       -2.0544238E-18
 -0.4450000       -2.0534575E-18
 -0.2835000       -2.0529506E-18
 -0.1220000       -2.0536585E-18
  3.9500002E-02   -2.0554613E-18
  0.2010000       -2.0574982E-18
  0.3625000       -2.0588013E-18
  0.5240000       -2.0589679E-18
  0.6855000       -2.0584110E-18
  0.8470000       -2.0580423E-18
   1.008500       -2.0586474E-18
   1.170000       -2.0603715E-18
   1.331500       -2.0626121E-18
   1.493000       -2.0643816E-18
   1.654500       -2.0648961E-18
   1.816000       -2.0640627E-18
   1.977500       -2.0625763E-18
   2.139000       -2.0615351E-18
   2.300500       -2.0617845E-18
   2.462000       -2.0633752E-18
   2.623500       -2.0655008E-18
   2.785000       -2.0670207E-18
   2.946500       -2.0672598E-18
   3.108000       -2.0665530E-18
   3.269500       -2.0661011E-18
   3.431000       -2.0671641E-18
   3.592500       -2.0701392E-18
   3.754000       -2.0741980E-18
   3.915500       -2.0777780E-18
   4.077000       -2.0796168E-18
   4.238500       -2.0795877E-18
   4.400000       -2.0787512E-18
   4.561500       -2.0786007E-18
   4.723000       -2.0800366E-18
   4.884500       -2.0827672E-18
   5.046000       -2.0855163E-18
   5.207500       -2.0868675E-18
   5.369000       -2.0861749E-18
   5.530500       -2.0839815E-18
   5.692000       -2.0817001E-18
   5.853500       -2.0807712E-18
   6.015000       -2.0817903E-18
   6.176500       -2.0841277E-18
   6.338000       -2.0862874E-18
   6.499500       -2.0868507E-18
   6.661000       -2.0854491E-18
   6.822500       -2.0831173E-18
   6.984000       -2.0817140E-18
   7.145500       -2.0827053E-18
   7.307000       -2.0861154E-18
   7.468500       -2.0904149E-18
   7.630000       -2.0935023E-18
   7.791500       -2.0941419E-18
   7.953000       -2.0928375E-18
   8.114500       -2.0914838E-18
   8.276000       -2.0920347E-18
   8.437500       -2.0951073E-18
   8.599000       -2.0995372E-18
   8.760500       -2.1031834E-18
   8.922000       -2.1044006E-18
   9.083500       -2.1031450E-18
   9.245000       -2.1009784E-18
   9.406500       -2.1000180E-18
   9.568000       -2.1015570E-18
   9.729500       -2.1052549E-18
   9.891000       -2.1093854E-18
   10.05250       -2.1119486E-18
   10.21400       -2.1119687E-18
   10.37550       -2.1101533E-18
   10.53700       -2.1084840E-18
   10.69850       -2.1089361E-18
   10.86000       -2.1121211E-18
   11.02150       -2.1167670E-18
   11.18300       -2.1204630E-18
   11.34450       -2.1212675E-18
   11.50600       -2.1191021E-18
   11.66750       -2.1159150E-18
   11.82900       -2.1143950E-18
   11.99050       -2.1160810E-18
   12.15200       -2.1202246E-18
   12.31350       -2.1242726E-18
   12.47500       -2.1256703E-18
   12.63650       -2.1236971E-18
   12.79800       -2.1200041E-18
   12.95950       -2.1174587E-18
   13.12100       -2.1181386E-18
   13.28250       -2.1218912E-18
   13.44400       -2.1264555E-18
   13.60550       -2.1290078E-18
   13.76700       -2.1280632E-18
   13.92850       -2.1244612E-18
   14.09000       -2.1208092E-18
   14.25150       -2.1197761E-18
   14.41300       -2.1223538E-18
   14.57450       -2.1271983E-18
   14.73600       -2.1314910E-18
   14.89750       -2.1327932E-18
   15.05900       -2.1307207E-18
   15.22050       -2.1273042E-18
   15.38200       -2.1257146E-18
   15.54350       -2.1281002E-18
   15.70500       -2.1340027E-18
   15.86650       -2.1405062E-18
   16.02800       -2.1441456E-18
   16.18950       -2.1432953E-18
   16.35100       -2.1393509E-18
   16.51250       -2.1357882E-18
   16.67400       -2.1357233E-18
   16.83550       -2.1396809E-18
   16.99700       -2.1451930E-18
   17.15850       -2.1485226E-18
   17.32000       -2.1472959E-18
   17.48150       -2.1421685E-18
   17.64300       -2.1363753E-18
   17.80450       -2.1335112E-18
   17.96600       -2.1351246E-18
   18.12750       -2.1397456E-18
   18.28900       -2.1439717E-18
   18.45050       -2.1448045E-18
   18.61200       -2.1416717E-18
   18.77350       -2.1368154E-18
   18.93500       -2.1338241E-18
   19.09650       -2.1352753E-18
   19.25800       -2.1410187E-18
   19.41950       -2.1482352E-18
   19.58100       -2.1532694E-18
   19.74250       -2.1540513E-18
   19.90400       -2.1515090E-18
   20.06550       -2.1489604E-18
   20.22700       -2.1498341E-18
   20.38850       -2.1552236E-18
   20.55000       -2.1630024E-18
   20.71150       -2.1691885E-18
   20.87300       -2.1706663E-18
   21.03450       -2.1673691E-18
   21.19600       -2.1623392E-18
   21.35750       -2.1596000E-18
   21.51900       -2.1613330E-18
   21.68050       -2.1663893E-18
   21.84200       -2.1711704E-18
   22.00350       -2.1722247E-18
   22.16500       -2.1686901E-18
   22.32650       -2.1628883E-18
   22.48800       -2.1586955E-18
   22.64950       -2.1588978E-18
   22.81100       -2.1633474E-18
   22.97250       -2.1691434E-18
   23.13400       -2.1726325E-18
   23.29550       -2.1718514E-18
   23.45700       -2.1677937E-18
   23.61850       -2.1637084E-18
   23.78000       -2.1629189E-18
   23.94150       -2.1665866E-18
   24.10300       -2.1728844E-18
   24.26450       -2.1781589E-18
   24.42600       -2.1793711E-18
   24.58750       -2.1761923E-18
   24.74900       -2.1713082E-18
   24.91050       -2.1686374E-18
   25.07200       -2.1706113E-18
   25.23350       -2.1764133E-18
   25.39500       -2.1824643E-18
   25.55650       -2.1848905E-18
   25.71800       -2.1822573E-18
   25.87950       -2.1766251E-18
   26.04100       -2.1721364E-18
   26.20250       -2.1721500E-18
   26.36400       -2.1769483E-18
   26.52550       -2.1836332E-18
   26.68700       -2.1882182E-18
   26.84850       -2.1883923E-18
   27.01000       -2.1850402E-18
   27.17150       -2.1815470E-18
   27.33300       -2.1814523E-18
   27.49450       -2.1860797E-18
   27.65600       -2.1936658E-18
   27.81750       -2.2004936E-18
   27.97900       -2.2032433E-18
   28.14050       -2.2010666E-18
   28.30200       -2.1960874E-18
   28.46350       -2.1920086E-18
   28.62500       -2.1916953E-18
   28.78650       -2.1952658E-18
   28.94800       -2.1999743E-18
   29.10950       -2.2020429E-18
   29.27100       -2.1992909E-18
   29.43250       -2.1927721E-18
   29.59400       -2.1862065E-18
   29.75550       -2.1835049E-18
   29.91700       -2.1860791E-18
   30.07850       -2.1918640E-18
   30.24000       -2.1967828E-18
   30.40150       -2.1976297E-18
   30.56300       -2.1943127E-18
   30.72450       -2.1898699E-18
   30.88600       -2.1882922E-18
   31.04750       -2.1917457E-18
   31.20900       -2.1991372E-18
   31.37050       -2.2069570E-18
   31.53200       -2.2116969E-18
   31.69350       -2.2121384E-18
   31.85500       -2.2100117E-18
   32.01650       -2.2086851E-18
   32.17800       -2.2108292E-18
   32.33950       -2.2165928E-18
   32.50100       -2.2234460E-18
   32.66250       -2.2277665E-18
   32.82400       -2.2271877E-18
   32.98550       -2.2222015E-18
   33.14700       -2.2159360E-18
   33.30850       -2.2121674E-18
   33.47000       -2.2128076E-18
   33.63150       -2.2165777E-18
   33.79300       -2.2198730E-18
   33.95450       -2.2193293E-18
   34.11600       -2.2143189E-18
   34.27750       -2.2075498E-18
   34.43900       -2.2032442E-18
   34.60050       -2.2041470E-18
   34.76200       -2.2095316E-18
   34.92350       -2.2156775E-18
   35.08500       -2.2184955E-18
   35.24650       -2.2164003E-18
   35.40800       -2.2113832E-18
   35.56950       -2.2075685E-18
   35.73100       -2.2083357E-18
   35.89250       -2.2140397E-18
   36.05400       -2.2218454E-18
   36.21550       -2.2276867E-18
   36.37700       -2.2289556E-18
   36.53850       -2.2261639E-18
   36.70000       -2.2225222E-18
   36.86150       -2.2217782E-18
   37.02300       -2.2256945E-18
   37.18450       -2.2327966E-18
   37.34600       -2.2392251E-18
   37.50750       -2.2412208E-18
   37.66900       -2.2376770E-18
   37.83050       -2.2310219E-18
   37.99200       -2.2257218E-18
   38.15350       -2.2252968E-18
   38.31500       -2.2298723E-18
   38.47650       -2.2360472E-18
   38.63800       -2.2392811E-18
   38.79950       -2.2371660E-18
   38.96100       -2.2312128E-18
   39.12250       -2.2258163E-18
   39.28400       -2.2251156E-18
   39.44550       -2.2300314E-18
   39.60700       -2.2376181E-18
   39.76850       -2.2431591E-18
   39.93000       -2.2434557E-18
   40.09150       -2.2389575E-18
   40.25300       -2.2333213E-18
   40.41450       -2.2308135E-18
   40.57600       -2.2334257E-18
   40.73750       -2.2396337E-18
   40.89900       -2.2455160E-18
   41.06050       -2.2474131E-18
   41.22200       -2.2443424E-18
   41.38350       -2.2386305E-18
   41.54500       -2.2343761E-18
   41.70650       -2.2347188E-18
   41.86800       -2.2396842E-18
   42.02950       -2.2460747E-18
   42.19100       -2.2495721E-18
   42.35250       -2.2477397E-18
   42.51400       -2.2418493E-18
   42.67550       -2.2361610E-18
   42.83700       -2.2350155E-18
   42.99850       -2.2397454E-18
   43.16000       -2.2476509E-18
   43.32150       -2.2538839E-18
   43.48300       -2.2549156E-18
   43.64450       -2.2510767E-18
   43.80600       -2.2462900E-18
   43.96750       -2.2451961E-18
   44.12900       -2.2497818E-18
   44.29050       -2.2579593E-18
   44.45200       -2.2650592E-18
   44.61350       -2.2670992E-18
   44.77500       -2.2634877E-18
   44.93650       -2.2573372E-18
   45.09800       -2.2532749E-18
   45.25950       -2.2543242E-18
   45.42100       -2.2599335E-18
   45.58250       -2.2664099E-18
   45.74400       -2.2694130E-18
   45.90550       -2.2668728E-18
   46.06700       -2.2604311E-18
   46.22850       -2.2544231E-18
   46.39000       -2.2529925E-18
   46.55150       -2.2572127E-18
   46.71300       -2.2642185E-18
   46.87450       -2.2690683E-18
   47.03600       -2.2681809E-18
   47.19750       -2.2619533E-18
   47.35900       -2.2546261E-18
   47.52050       -2.2513617E-18
   47.68200       -2.2545784E-18
   47.84350       -2.2622087E-18
   48.00500       -2.2691758E-18
   48.16650       -2.2710510E-18
   48.32800       -2.2671989E-18
   48.48950       -2.2611563E-18
   48.65100       -2.2580155E-18
   48.81250       -2.2607737E-18
   48.97400       -2.2682603E-18
   49.13550       -2.2760344E-18
   49.29700       -2.2794976E-18
   49.45850       -2.2770146E-18
   49.62000       -2.2709383E-18
   49.78150       -2.2659422E-18
   49.94300       -2.2658613E-18
   50.10450       -2.2711503E-18
   50.26600       -2.2786179E-18
   50.42750       -2.2835903E-18
   50.58900       -2.2830828E-18
   50.75050       -2.2778649E-18
   50.91200       -2.2719810E-18
   51.07350       -2.2699834E-18
   51.23500       -2.2737123E-18
   51.39650       -2.2809015E-18
   51.55800       -2.2866808E-18
   51.71950       -2.2870134E-18
   51.88100       -2.2816390E-18
   52.04250       -2.2743430E-18
   52.20400       -2.2703027E-18
   52.36550       -2.2723956E-18
   52.52700       -2.2791605E-18
   52.68850       -2.2858888E-18
   52.85000       -2.2880182E-18
   53.01150       -2.2843587E-18
   53.17300       -2.2778397E-18
   53.33450       -2.2733266E-18
   53.49600       -2.2741495E-18
   53.65750       -2.2798032E-18
   53.81900       -2.2863781E-18
   53.98050       -2.2893092E-18
   54.14200       -2.2865059E-18
   54.30350       -2.2797416E-18
   54.46500       -2.2734329E-18
   54.62650       -2.2716692E-18
   54.78800       -2.2754942E-18
   54.94950       -2.2822356E-18
   55.11100       -2.2873459E-18
   55.27250       -2.2875316E-18
   55.43400       -2.2830570E-18
   55.59550       -2.2776160E-18
   55.75700       -2.2757937E-18
   55.91850       -2.2798413E-18
   56.08000       -2.2880384E-18
   56.24150       -2.2958402E-18
   56.40300       -2.2990583E-18
   56.56450       -2.2968045E-18
   56.72600       -2.2920904E-18
   56.88750       -2.2896434E-18
   57.04900       -2.2925236E-18
   57.21050       -2.2999776E-18
   57.37200       -2.3080308E-18
   57.53350       -2.3123166E-18
   57.69500       -2.3110804E-18
   57.85650       -2.3062530E-18
   58.01800       -2.3019467E-18
   58.17950       -2.3015403E-18
   58.34100       -2.3054086E-18
   58.50250       -2.3107956E-18
   58.66400       -2.3138012E-18
   58.82550       -2.3120722E-18
   58.98700       -2.3063762E-18
   59.14850       -2.3000630E-18
   59.31000       -2.2968144E-18
   59.47150       -2.2982045E-18
   59.63300       -2.3026922E-18
   59.79450       -2.3067154E-18
   59.95600       -2.3071482E-18
   60.11750       -2.3034467E-18
   60.27900       -2.2979962E-18
   60.44050       -2.2944032E-18
   60.60200       -2.2949340E-18
   60.76350       -2.2989250E-18
   60.92500       -2.3032991E-18
   61.08650       -2.3048135E-18
   61.24800       -2.3023915E-18
   61.40950       -2.2978569E-18
   61.57100       -2.2945893E-18
   61.73250       -2.2951286E-18
   61.89400       -2.2994657E-18
   62.05550       -2.3051727E-18
   62.21700       -2.3091801E-18
   62.37850       -2.3098735E-18
   62.54000       -2.3080614E-18
   62.70150       -2.3062503E-18
   62.86300       -2.3068359E-18
   63.02450       -2.3104722E-18
   63.18600       -2.3156748E-18
   63.34750       -2.3198392E-18
   63.50900       -2.3209528E-18
   63.67050       -2.3188766E-18
   63.83200       -2.3153925E-18
   63.99350       -2.3129976E-18
   64.15500       -2.3132476E-18
   64.31650       -2.3157502E-18
   64.47800       -2.3184872E-18
   64.63950       -2.3192409E-18
   64.80100       -2.3171397E-18
   64.96250       -2.3132586E-18
   65.12400       -2.3098706E-18
   65.28550       -2.3089179E-18
   65.44700       -2.3107607E-18
   65.60850       -2.3140481E-18
   65.77000       -2.3167178E-18
   65.93150       -2.3173723E-18
   66.09300       -2.3161053E-18
   66.25450       -2.3143126E-18
   66.41600       -2.3137296E-18
   66.57750       -2.3153530E-18
   66.73900       -2.3188921E-18
   66.90050       -2.3229788E-18
   67.06200       -2.3259543E-18
   67.22350       -2.3267811E-18
   67.38500       -2.3255995E-18
   67.54650       -2.3236401E-18
   67.70800       -2.3225131E-18
   67.86950       -2.3232445E-18
   68.03100       -2.3256282E-18
   68.19250       -2.3283141E-18
   68.35400       -2.3296438E-18
   68.51550       -2.3287322E-18
   68.67700       -2.3261096E-18
   68.83850       -2.3234662E-18
   69.00000       -2.3226336E-18
   69.16150       -2.3244230E-18
   69.32300       -2.3280734E-18
   69.48450       -2.3316697E-18
   69.64600       -2.3332999E-18
   69.80750       -2.3322484E-18
   69.96900       -2.3294816E-18
   70.13050       -2.3270938E-18
   70.29200       -2.3269943E-18
   70.45350       -2.3296334E-18
   70.61500       -2.3335946E-18
   70.77650       -2.3364225E-18
   70.93800       -2.3362331E-18
   71.09950       -2.3330776E-18
   71.26100       -2.3290755E-18
   71.42250       -2.3270987E-18
   71.58400       -2.3288085E-18
   71.74550       -2.3333988E-18
   71.90700       -2.3380101E-18
   72.06850       -2.3396336E-18
   72.23000       -2.3372228E-18
   72.39150       -2.3325093E-18
   72.55300       -2.3288677E-18
   72.71450       -2.3289560E-18
   72.87600       -2.3327877E-18
   73.03750       -2.3376310E-18
   73.19900       -2.3398867E-18
   73.36050       -2.3376695E-18
   73.52200       -2.3322715E-18
   73.68350       -2.3274265E-18
   73.84500       -2.3267970E-18
   74.00650       -2.3313966E-18
   74.16800       -2.3387605E-18
   74.32950       -2.3445353E-18
   74.49100       -2.3454706E-18
   74.65250       -2.3417479E-18
   74.81400       -2.3369554E-18
   74.97550       -2.3356094E-18
   75.13700       -2.3398867E-18
   75.29850       -2.3478870E-18
   75.46000       -2.3547663E-18
   75.62150       -2.3560660E-18
   75.78300       -2.3509327E-18
   75.94450       -2.3428983E-18
   76.10600       -2.3375371E-18
   76.26750       -2.3385552E-18
   76.42900       -2.3450719E-18
   76.59050       -2.3521088E-18
   76.75200       -2.3540444E-18
   76.91350       -2.3486627E-18
   77.07500       -2.3389010E-18
   77.23650       -2.3309766E-18
   77.39800       -2.3301421E-18
   77.55950       -2.3369991E-18
   77.72100       -2.3470150E-18
   77.88250       -2.3536361E-18
   78.04400       -2.3528760E-18
   78.20550       -2.3461615E-18
   78.36700       -2.3393960E-18
   78.52850       -2.3388220E-18
   78.69000       -2.3465553E-18
   78.85150       -2.3589235E-18
   79.01300       -2.3688457E-18
   79.17450       -2.3706477E-18
   79.33600       -2.3639784E-18
   79.49750       -2.3540698E-18
   79.65900       -2.3481168E-18
   79.82050       -2.3502677E-18
   79.98200       -2.3587432E-18
   80.14350       -2.3671153E-18
   80.30500       -2.3688850E-18
   80.46650       -2.3621427E-18
   80.62800       -2.3510196E-18
   80.78950       -2.3428809E-18
   80.95100       -2.3432133E-18
   81.11250       -2.3518062E-18
   81.27400       -2.3629014E-18
   81.43550       -2.3692177E-18
   81.59700       -2.3670135E-18
   81.75850       -2.3586317E-18
   81.92000       -2.3507476E-18
   82.08150       -2.3495852E-18
   82.24300       -2.3564852E-18
   82.40450       -2.3669591E-18
   82.56600       -2.3738659E-18
   82.72750       -2.3724444E-18
   82.88900       -2.3636541E-18
   83.05050       -2.3534804E-18
   83.21200       -2.3487289E-18
   83.37350       -2.3522779E-18
   83.53500       -2.3611194E-18
   83.69650       -2.3685434E-18
   83.85800       -2.3688968E-18
   84.01950       -2.3615729E-18
   84.18100       -2.3514329E-18
   84.34250       -2.3453931E-18
   84.50400       -2.3475874E-18
   84.66550       -2.3564876E-18
   84.82700       -2.3659938E-18
   84.98850       -2.3697089E-18
   85.15000       -2.3654127E-18
   85.31150       -2.3566003E-18
   85.47300       -2.3500185E-18
   85.63450       -2.3509290E-18
   85.79600       -2.3594204E-18
   85.95750       -2.3703402E-18
   86.11900       -2.3768983E-18
   86.28050       -2.3753897E-18
   86.44200       -2.3677480E-18
   86.60350       -2.3601624E-18
   86.76500       -2.3587477E-18
   86.92650       -2.3653037E-18
   87.08800       -2.3761088E-18
   87.24950       -2.3845375E-18
   87.41100       -2.3856553E-18
   87.57250       -2.3795662E-18
   87.73400       -2.3712462E-18
   87.89550       -2.3670373E-18
   88.05700       -2.3702705E-18
   88.21850       -2.3790298E-18
   88.38000       -2.3875282E-18
   88.54150       -2.3900863E-18
   88.70300       -2.3849592E-18
   88.86450       -2.3754421E-18
   89.02600       -2.3675543E-18
   89.18750       -2.3659527E-18
   89.34900       -2.3708616E-18
   89.51050       -2.3780777E-18
   89.67200       -2.3819751E-18
   89.83350       -2.3794169E-18
   89.99500       -2.3718920E-18
   90.15650       -2.3644658E-18
   90.31800       -2.3622969E-18
   90.47950       -2.3671330E-18
   90.64100       -2.3761656E-18
   90.80250       -2.3840003E-18
   90.96400       -2.3863327E-18
   91.12550       -2.3827814E-18
   91.28700       -2.3769577E-18
   91.44850       -2.3737978E-18
   91.61000       -2.3760823E-18
   91.77150       -2.3825660E-18
   91.93300       -2.3889470E-18
   92.09450       -2.3909188E-18
   92.25600       -2.3871458E-18
   92.41750       -2.3801214E-18
   92.57900       -2.3744066E-18
   92.74050       -2.3735284E-18
   92.90200       -2.3776988E-18
   93.06350       -2.3838427E-18
   93.22500       -2.3878297E-18
   93.38650       -2.3873131E-18
   93.54800       -2.3832641E-18
   93.70950       -2.3792153E-18
   93.87100       -2.3787934E-18
   94.03250       -2.3832172E-18
   94.19400       -2.3904492E-18
   94.35550       -2.3965604E-18
   94.51700       -2.3983606E-18
   94.67850       -2.3955120E-18
   94.84000       -2.3906851E-18
   95.00150       -2.3876562E-18
   95.16300       -2.3886751E-18
   95.32450       -2.3929158E-18
   95.48600       -2.3970844E-18
   95.64750       -2.3977344E-18
   95.80900       -2.3936820E-18
   95.97050       -2.3868321E-18
   96.13200       -2.3808822E-18
   96.29350       -2.3788331E-18
   96.45500       -2.3810582E-18
   96.61650       -2.3852034E-18
   96.77800       -2.3879087E-18
   96.93950       -2.3871035E-18
   97.10100       -2.3833330E-18
   97.26250       -2.3793025E-18
   97.42400       -2.3780235E-18
   97.58550       -2.3808216E-18
   97.74700       -2.3864953E-18
   97.90850       -2.3921141E-18
   98.07000       -2.3949100E-18
   98.23150       -2.3940230E-18
   98.39300       -2.3909970E-18
   98.55450       -2.3887171E-18
   98.71600       -2.3894959E-18
   98.87750       -2.3935606E-18
   99.03900       -2.3989321E-18
   99.20050       -2.4027734E-18
   99.36200       -2.4032955E-18
   99.52350       -2.4009381E-18
   99.68500       -2.3980154E-18
   99.84650       -2.3971200E-18
   100.0080       -2.3993995E-18
   100.1695       -2.4038698E-18
   100.3310       -2.4081595E-18
   100.4925       -2.4100999E-18
   100.6540       -2.4090603E-18
   100.8155       -2.4062080E-18
   100.9770       -2.4036266E-18
   101.1385       -2.4029491E-18
   101.3000       -2.4043872E-18
   101.4615       -2.4066872E-18
   101.6230       -2.4079718E-18
   101.7845       -2.4069051E-18
   101.9460       -2.4035147E-18
   102.1075       -2.3992006E-18
   102.2690       -2.3959446E-18
   102.4305       -2.3951480E-18
   102.5920       -2.3967902E-18
   102.7535       -2.3994489E-18
   102.9150       -2.4012174E-18
   103.0765       -2.4009705E-18
   103.2380       -2.3991207E-18
   103.3995       -2.3973452E-18
   103.5610       -2.3974236E-18
   103.7225       -2.3999831E-18
   103.8840       -2.4039982E-18
   104.0455       -2.4074066E-18
   104.2070       -2.4084234E-18
   104.3685       -2.4066863E-18
   104.5300       -2.4034856E-18
   104.6915       -2.4009383E-18
   104.8530       -2.4006694E-18
   105.0145       -2.4028236E-18
   105.1760       -2.4060205E-18
   105.3375       -2.4082646E-18
   105.4990       -2.4082619E-18
   105.6605       -2.4063358E-18
   105.8220       -2.4043318E-18
   105.9835       -2.4044852E-18
   106.1450       -2.4079104E-18
   106.3065       -2.4136934E-18
   106.4680       -2.4193004E-18
   106.6295       -2.4221441E-18
   106.7910       -2.4213270E-18
   106.9525       -2.4183237E-18
   107.1140       -2.4160281E-18
   107.2755       -2.4167293E-18
   107.4370       -2.4204080E-18
   107.5985       -2.4246066E-18
   107.7600       -2.4260539E-18
   107.9215       -2.4229657E-18
   108.0830       -2.4163912E-18
   108.2445       -2.4096288E-18
   108.4060       -2.4060806E-18
   108.5675       -2.4070002E-18
   108.7290       -2.4106891E-18
   108.8905       -2.4136884E-18
   109.0520       -2.4131834E-18
   109.2135       -2.4090060E-18
   109.3750       -2.4038776E-18
   109.5365       -2.4016711E-18
   109.6980       -2.4047956E-18
   109.8595       -2.4124369E-18
   110.0210       -2.4208940E-18
   110.1825       -2.4258995E-18
   110.3440       -2.4254352E-18
   110.5055       -2.4211293E-18
   110.6670       -2.4171847E-18
   110.8285       -2.4174606E-18
   110.9900       -2.4226813E-18
   111.1515       -2.4297758E-18
   111.3130       -2.4339194E-18
   111.4745       -2.4319315E-18
   111.6360       -2.4246438E-18
   111.7975       -2.4164928E-18
   111.9590       -2.4125525E-18
   112.1205       -2.4150605E-18
   112.2820       -2.4218823E-18
   112.4435       -2.4280096E-18
   112.6050       -2.4290456E-18
   112.7665       -2.4242619E-18
   112.9280       -2.4171020E-18
   113.0895       -2.4127765E-18
   113.2510       -2.4146130E-18
   113.4125       -2.4216709E-18
   113.5740       -2.4292797E-18
   113.7355       -2.4321699E-18
   113.8970       -2.4280896E-18
   114.0585       -2.4194237E-18
   114.2200       -2.4116511E-18
   114.3815       -2.4096212E-18
   114.5430       -2.4141827E-18
   114.7045       -2.4215375E-18
   114.8660       -2.4258821E-18
   115.0275       -2.4235550E-18
   115.1890       -2.4157853E-18
   115.3505       -2.4080098E-18
   115.5120       -2.4061338E-18
   115.6735       -2.4123430E-18
   115.8350       -2.4234593E-18
   115.9965       -2.4330753E-18
   116.1580       -2.4360099E-18
   116.3195       -2.4319331E-18
   116.4810       -2.4255740E-18
   116.6425       -2.4233424E-18
   116.8040       -2.4287282E-18
   116.9655       -2.4397320E-18
   117.1270       -2.4501379E-18
   117.2885       -2.4537610E-18
   117.4500       -2.4487414E-18
   117.6115       -2.4389052E-18
   117.7730       -2.4312271E-18
   117.9345       -2.4310815E-18
   118.0960       -2.4385148E-18
   118.2575       -2.4481268E-18
   118.4190       -2.4527301E-18
   118.5805       -2.4483494E-18
   118.7420       -2.4371204E-18