  -27.90000        6.0263665E-18
  -27.73850        6.0284340E-18
  -27.57700        6.0313969E-18
  -27.41550        6.0340046E-18
  -27.25400        6.0359498E-18
  -27.09250        6.0378825E-18
  -26.93100        6.0405054E-18
  -26.76950        6.0437310E-18
  -26.60800        6.0467589E-18
  -26.44650        6.0489336E-18
  -26.28500        6.0504386E-18
  -26.12350        6.0520942E-18
  -25.96200        6.0544840E-18
  -25.80050        6.0573386E-18
  -25.63900        6.0598383E-18
  -25.47750        6.0615171E-18
  -25.31600        6.0627872E-18
  -25.15450        6.0645073E-18
  -24.99300        6.0670352E-18
  -24.83150        6.0697868E-18
  -24.67000        6.0718209E-18
  -24.50850        6.0728370E-18
  -24.34700        6.0735339E-18
  -24.18550        6.0749257E-18
  -24.02400        6.0773220E-18
  -23.86250        6.0800207E-18
  -23.70100        6.0820320E-18
  -23.53950        6.0830767E-18
  -23.37800        6.0838452E-18
  -23.21650        6.0852547E-18
  -23.05500        6.0874806E-18
  -22.89350        6.0897628E-18
  -22.73200        6.0912038E-18
  -22.57050        6.0917418E-18
  -22.40900        6.0922766E-18
  -22.24750        6.0937883E-18
  -22.08600        6.0963377E-18
  -21.92450        6.0989760E-18
  -21.76300        6.1006568E-18
  -21.60150        6.1012151E-18
  -21.44000        6.1014447E-18
  -21.27850        6.1022640E-18
  -21.11700        6.1038753E-18
  -20.95550        6.1057522E-18
  -20.79400        6.1073698E-18
  -20.63250        6.1088335E-18
  -20.47100        6.1107314E-18
  -20.30950        6.1133838E-18
  -20.14800        6.1163331E-18
  -19.98650        6.1186678E-18
  -19.82500        6.1198908E-18
  -19.66350        6.1204177E-18
  -19.50200        6.1211522E-18
  -19.34050        6.1225369E-18
  -19.17900        6.1240916E-18
  -19.01750        6.1249548E-18
  -18.85600        6.1248870E-18
  -18.69450        6.1246868E-18
  -18.53300        6.1255388E-18
  -18.37150        6.1279273E-18
  -18.21000        6.1311814E-18
  -18.04850        6.1340881E-18
  -17.88700        6.1359563E-18
  -17.72550        6.1371061E-18
  -17.56400        6.1383692E-18
  -17.40250        6.1401571E-18
  -17.24100        6.1420526E-18
  -17.07950        6.1432922E-18
  -16.91800        6.1435970E-18
  -16.75650        6.1434779E-18
  -16.59500        6.1437024E-18
  -16.43350        6.1445321E-18
  -16.27200        6.1455305E-18
  -16.11050        6.1461381E-18
  -15.94900        6.1463428E-18
  -15.78750        6.1467121E-18
  -15.62600        6.1477523E-18
  -15.46450        6.1493351E-18
  -15.30300        6.1508253E-18
  -15.14150        6.1517947E-18
  -14.98000        6.1525313E-18
  -14.81850        6.1537903E-18
  -14.65700        6.1559865E-18
  -14.49550        6.1586748E-18
  -14.33400        6.1609037E-18
  -14.17250        6.1621593E-18
  -14.01100        6.1629803E-18
  -13.84950        6.1645805E-18
  -13.68800        6.1677854E-18
  -13.52650        6.1722910E-18
  -13.36500        6.1769410E-18
  -13.20350        6.1807527E-18
  -13.04200        6.1836730E-18
  -12.88050        6.1863862E-18
  -12.71900        6.1894414E-18
  -12.55750        6.1926169E-18
  -12.39600        6.1951179E-18
  -12.23450        6.1963301E-18
  -12.07300        6.1963459E-18
  -11.91150        6.1957689E-18
  -11.75000        6.1951005E-18
  -11.58850        6.1943693E-18
  -11.42700        6.1933734E-18
  -11.26550        6.1921980E-18
  -11.10400        6.1913476E-18
  -10.94250        6.1912715E-18
  -10.78100        6.1917716E-18
  -10.61950        6.1919903E-18
  -10.45800        6.1911206E-18
  -10.29650        6.1891808E-18
  -10.13500        6.1870512E-18
  -9.973500        6.1857009E-18
  -9.812000        6.1853344E-18
  -9.650500        6.1853104E-18
  -9.489000        6.1848902E-18
  -9.327500        6.1840726E-18
  -9.166000        6.1836755E-18
  -9.004500        6.1845887E-18
  -8.843000        6.1869115E-18
  -8.681500        6.1898215E-18
  -8.520000        6.1922997E-18
  -8.358500        6.1940078E-18
  -8.197000        6.1954773E-18
  -8.035500        6.1974584E-18
  -7.874000        6.2001095E-18
  -7.712500        6.2028529E-18
  -7.551000        6.2049882E-18
  -7.389500        6.2064147E-18
  -7.228000        6.2077130E-18
  -7.066500        6.2095750E-18
  -6.905000        6.2122054E-18
  -6.743500        6.2152875E-18
  -6.582000        6.2184643E-18
  -6.420500        6.2217250E-18
  -6.259000        6.2252645E-18
  -6.097500        6.2289889E-18
  -5.936000        6.2322885E-18
  -5.774500        6.2344322E-18
  -5.613000        6.2352519E-18
  -5.451500        6.2353896E-18
  -5.290000        6.2357362E-18
  -5.128500        6.2365410E-18
  -4.967000        6.2370915E-18
  -4.805500        6.2363773E-18
  -4.644000        6.2341720E-18
  -4.482500        6.2314742E-18
  -4.321000        6.2298339E-18
  -4.159500        6.2301457E-18
  -3.998000        6.2319994E-18
  -3.836500        6.2341348E-18
  -3.675000        6.2355249E-18
  -3.513500        6.2360803E-18
  -3.352000        6.2364232E-18
  -3.190500        6.2370986E-18
  -3.029000        6.2380602E-18
  -2.867500        6.2388807E-18
  -2.706000        6.2393473E-18
  -2.544500        6.2397170E-18
  -2.383000        6.2403692E-18
  -2.221500        6.2412920E-18
  -2.060000        6.2420699E-18
  -1.898500        6.2424430E-18
  -1.737000        6.2428007E-18
  -1.575500        6.2439609E-18
  -1.414000        6.2463539E-18
  -1.252500        6.2494277E-18
  -1.091000        6.2519713E-18
 -0.9295000        6.2531260E-18
 -0.7680000        6.2531467E-18
 -0.6065000        6.2531533E-18
 -0.4450000        6.2540909E-18
 -0.2835000        6.2558809E-18
 -0.1220000        6.2575858E-18
  3.9500002E-02    6.2583956E-18
  0.2010000        6.2584560E-18
  0.3625000        6.2587074E-18
  0.5240000        6.2599118E-18
  0.6855000        6.2618594E-18
  0.8470000        6.2635646E-18
   1.008500        6.2642111E-18
   1.170000        6.2638926E-18
   1.331500        6.2634108E-18
   1.493000        6.2634133E-18
   1.654500        6.2637962E-18
   1.816000        6.2639608E-18
   1.977500        6.2635828E-18
   2.139000        6.2630447E-18
   2.300500        6.2630898E-18
   2.462000        6.2640940E-18
   2.623500        6.2657674E-18
   2.785000        6.2675971E-18
   2.946500        6.2695245E-18
   3.108000        6.2720453E-18
   3.269500        6.2755633E-18
   3.431000        6.2796611E-18
   3.592500        6.2831688E-18
   3.754000        6.2851065E-18
   3.915500        6.2856086E-18
   4.077000        6.2858724E-18
   4.238500        6.2870760E-18
   4.400000        6.2892775E-18
   4.561500        6.2913562E-18
   4.723000        6.2920672E-18
   4.884500        6.2912094E-18
   5.046000        6.2898247E-18
   5.207500        6.2892792E-18
   5.369000        6.2901345E-18
   5.530500        6.2918422E-18
   5.692000        6.2934341E-18
   5.853500        6.2944218E-18
   6.015000        6.2950235E-18
   6.176500        6.2956348E-18
   6.338000        6.2962378E-18
   6.499500        6.2964666E-18
   6.661000        6.2961795E-18
   6.822500        6.2958118E-18
   6.984000        6.2959856E-18
   7.145500        6.2967639E-18
   7.307000        6.2974195E-18
   7.468500        6.2970936E-18
   7.630000        6.2957552E-18
   7.791500        6.2944495E-18
   7.953000        6.2944648E-18
   8.114500        6.2961526E-18
   8.276000        6.2985490E-18
   8.437500        6.3002079E-18
   8.599000        6.3004953E-18
   8.760500        6.3001128E-18
   8.922000        6.3003535E-18
   9.083500        6.3018379E-18
   9.245000        6.3039687E-18
   9.406500        6.3055978E-18
   9.568000        6.3061847E-18
   9.729500        6.3062562E-18
   9.891000        6.3067662E-18
   10.05250        6.3080690E-18
   10.21400        6.3095902E-18
   10.37550        6.3104662E-18
   10.53700        6.3104426E-18
   10.69850        6.3100729E-18
   10.86000        6.3100596E-18
   11.02150        6.3105125E-18
   11.18300        6.3109240E-18
   11.34450        6.3108835E-18
   11.50600        6.3106808E-18
   11.66750        6.3110981E-18
   11.82900        6.3125635E-18
   11.99050        6.3145946E-18
   12.15200        6.3162225E-18
   12.31350        6.3170141E-18
   12.47500        6.3176147E-18
   12.63650        6.3191561E-18
   12.79800        6.3220649E-18
   12.95950        6.3254836E-18
   13.12100        6.3279631E-18
   13.28250        6.3287957E-18
   13.44400        6.3286890E-18
   13.60550        6.3290918E-18
   13.76700        6.3308239E-18
   13.92850        6.3333249E-18
   14.09000        6.3352237E-18
   14.25150        6.3356377E-18
   14.41300        6.3349383E-18
   14.57450        6.3342985E-18
   14.73600        6.3345777E-18
   14.89750        6.3356911E-18
   15.05900        6.3369984E-18
   15.22050        6.3381610E-18
   15.38200        6.3394663E-18
   15.54350        6.3413080E-18
   15.70500        6.3434893E-18
   15.86650        6.3452272E-18
   16.02800        6.3459154E-18
   16.18950        6.3458046E-18
   16.35100        6.3457926E-18
   16.51250        6.3464593E-18
   16.67400        6.3473531E-18
   16.83550        6.3473580E-18
   16.99700        6.3458418E-18
   17.15850        6.3434459E-18
   17.32000        6.3416525E-18
   17.48150        6.3414793E-18
   17.64300        6.3425720E-18
   17.80450        6.3435819E-18
   17.96600        6.3434765E-18
   18.12750        6.3424777E-18
   18.28900        6.3417344E-18
   18.45050        6.3421162E-18
   18.61200        6.3433723E-18
   18.77350        6.3444852E-18
   18.93500        6.3447578E-18
   19.09650        6.3444736E-18
   19.25800        6.3444778E-18
   19.41950        6.3451751E-18
   19.58100        6.3460813E-18
   19.74250        6.3463898E-18
   19.90400        6.3459435E-18
   20.06550        6.3455378E-18
   20.22700        6.3461793E-18
   20.38850        6.3480830E-18
   20.55000        6.3504583E-18
   20.71150        6.3523393E-18
   20.87300        6.3535792E-18
   21.03450        6.3549548E-18
   21.19600        6.3572511E-18
   21.35750        6.3603022E-18
   21.51900        6.3630103E-18
   21.68050        6.3643657E-18
   21.84200        6.3644132E-18
   22.00350        6.3641610E-18
   22.16500        6.3645377E-18
   22.32650        6.3654807E-18
   22.48800        6.3660982E-18
   22.64950        6.3657065E-18
   22.81100        6.3646312E-18
   22.97250        6.3639116E-18
   23.13400        6.3642056E-18
   23.29550        6.3650634E-18
   23.45700        6.3653447E-18
   23.61850        6.3643884E-18
   23.78000        6.3627299E-18
   23.94150        6.3616248E-18
   24.10300        6.3618817E-18
   24.26450        6.3631936E-18
   24.42600        6.3646163E-18
   24.58750        6.3656449E-18
   24.74900        6.3667132E-18
   24.91050        6.3686083E-18
   25.07200        6.3714571E-18
   25.23350        6.3743994E-18
   25.39500        6.3763296E-18
   25.55650        6.3769210E-18
   25.71800        6.3768611E-18
   25.87950        6.3770356E-18
   26.04100        6.3775439E-18
   26.20250        6.3775873E-18
   26.36400        6.3763776E-18
   26.52550        6.3741099E-18
   26.68700        6.3719505E-18
   26.84850        6.3710228E-18
   27.01000        6.3714116E-18
   27.17150        6.3722082E-18
   27.33300        6.3725283E-18
   27.49450        6.3724340E-18
   27.65600        6.3728133E-18
   27.81750        6.3743750E-18
   27.97900        6.3768491E-18
   28.14050        6.3792293E-18
   28.30200        6.3807621E-18
   28.46350        6.3816149E-18
   28.62500        6.3825107E-18
   28.78650        6.3837544E-18
   28.94800        6.3847565E-18
   29.10950        6.3846089E-18
   29.27100        6.3831476E-18
   29.43250        6.3813531E-18
   29.59400        6.3805999E-18
   29.75550        6.3814569E-18
   29.91700        6.3832395E-18
   30.07850        6.3847524E-18
   30.24000        6.3854675E-18
   30.40150        6.3859365E-18
   30.56300        6.3870681E-18
   30.72450        6.3890773E-18
   30.88600        6.3912085E-18
   31.04750        6.3925010E-18
   31.20900        6.3927463E-18
   31.37050        6.3926362E-18
   31.53200        6.3929746E-18
   31.69350        6.3938530E-18
   31.85500        6.3946736E-18
   32.01650        6.3949681E-18
   32.17800        6.3950648E-18
   32.33950        6.3958263E-18
   32.50100        6.3976734E-18
   32.66250        6.3999646E-18
   32.82400        6.4014540E-18
   32.98550        6.4014490E-18
   33.14700        6.4005246E-18
   33.30850        6.4000325E-18
   33.47000        6.4008729E-18
   33.63150        6.4027332E-18
   33.79300        6.4045050E-18
   33.95450        6.4054162E-18
   34.11600        6.4057160E-18
   34.27750        6.4062682E-18
   34.43900        6.4075598E-18
   34.60050        6.4091798E-18
   34.76200        6.4102692E-18
   34.92350        6.4104024E-18
   35.08500        6.4099272E-18
   35.24650        6.4094330E-18
   35.40800        6.4089751E-18
   35.56950        6.4079602E-18
   35.73100        6.4058459E-18
   35.89250        6.4029078E-18
   36.05400        6.4001830E-18
   36.21550        6.3985961E-18
   36.37700        6.3981382E-18
   36.53850        6.3979840E-18
   36.70000        6.3974554E-18
   36.86150        6.3968515E-18
   37.02300        6.3972705E-18
   37.18450        6.3995692E-18
   37.34600        6.4034855E-18
   37.50750        6.4077980E-18
   37.66900        6.4113297E-18
   37.83050        6.4137997E-18
   37.99200        6.4157274E-18
   38.15350        6.4175914E-18
   38.31500        6.4191945E-18
   38.47650        6.4198947E-18
   38.63800        6.4194083E-18
   38.79950        6.4182797E-18
   38.96100        6.4174657E-18
   39.12250        6.4174802E-18
   39.28400        6.4180013E-18
   39.44550        6.4183537E-18
   39.60700        6.4183252E-18
   39.76850        6.4184141E-18
   39.93000        6.4192280E-18
   40.09150        6.4206822E-18
   40.25300        6.4219201E-18
   40.41450        6.4220992E-18
   40.57600        6.4212563E-18
   40.73750        6.4203348E-18
   40.89900        6.4203058E-18
   41.06050        6.4212517E-18
   41.22200        6.4223548E-18
   41.38350        6.4227899E-18
   41.54500        6.4226058E-18
   41.70650        6.4226629E-18
   41.86800        6.4237006E-18
   42.02950        6.4255009E-18
   42.19100        6.4270188E-18
   42.35250        6.4273555E-18
   42.51400        6.4266019E-18
   42.67550        6.4257053E-18
   42.83700        6.4255415E-18
   42.99850        6.4261548E-18
   43.16000        6.4268869E-18
   43.32150        6.4271826E-18
   43.48300        6.4271636E-18
   43.64450        6.4274109E-18
   43.80600        6.4282745E-18
   43.96750        6.4295297E-18
   44.12900        6.4307337E-18
   44.29050        6.4318227E-18
   44.45200        6.4331855E-18
   44.61350        6.4350760E-18
   44.77500        6.4370244E-18
   44.93650        6.4380063E-18
   45.09800        6.4373478E-18
   45.25950        6.4354743E-18
   45.42100        6.4336578E-18
   45.58250        6.4329150E-18
   45.74400        6.4330920E-18
   45.90550        6.4330812E-18
   46.06700        6.4320042E-18
   46.22850        6.4302101E-18
   46.39000        6.4291041E-18
   46.55150        6.4299516E-18
   46.71300        6.4327901E-18
   46.87450        6.4364375E-18
   47.03600        6.4394952E-18
   47.19750        6.4413522E-18
   47.35900        6.4423217E-18
   47.52050        6.4429760E-18
   47.68200        6.4435091E-18
   47.84350        6.4437258E-18
   48.00500        6.4435178E-18
   48.16650        6.4431269E-18
   48.32800        6.4428837E-18
   48.48950        6.4427547E-18
   48.65100        6.4423481E-18
   48.81250        6.4414482E-18
   48.97400        6.4404862E-18
   49.13550        6.4402980E-18
   49.29700        6.4412984E-18
   49.45850        6.4429052E-18
   49.62000        6.4439036E-18
   49.78150        6.4435132E-18
   49.94300        6.4421389E-18
   50.10450        6.4410358E-18
   50.26600        6.4411781E-18
   50.42750        6.4423940E-18
   50.58900        6.4435893E-18
   50.75050        6.4438180E-18
   50.91200        6.4431381E-18
   51.07350        6.4424577E-18
   51.23500        6.4425851E-18
   51.39650        6.4434661E-18
   51.55800        6.4443371E-18
   51.71950        6.4445526E-18
   51.88100        6.4441990E-18
   52.04250        6.4439140E-18
   52.20400        6.4441932E-18
   52.36550        6.4449600E-18
   52.52700        6.4458124E-18
   52.68850        6.4465597E-18
   52.85000        6.4474258E-18
   53.01150        6.4487183E-18
   53.17300        6.4504103E-18
   53.33450        6.4521593E-18
   53.49600        6.4537558E-18
   53.65750        6.4554441E-18
   53.81900        6.4576700E-18
   53.98050        6.4604448E-18
   54.14200        6.4630297E-18
   54.30350        6.4643888E-18
   54.46500        6.4640794E-18
   54.62650        6.4626976E-18
   54.78800        6.4613853E-18
   54.94950        6.4608183E-18
   55.11100        6.4606350E-18
   55.27250        6.4598682E-18
   55.43400        6.4579591E-18
   55.59550        6.4553754E-18
   55.75700        6.4532872E-18
   55.91850        6.4526358E-18
   56.08000        6.4534621E-18
   56.24150        6.4550346E-18
   56.40300        6.4565231E-18
   56.56450        6.4575472E-18
   56.72600        6.4581775E-18
   56.88750        6.4585886E-18
   57.04900        6.4588388E-18
   57.21050        6.4589612E-18
   57.37200        6.4591263E-18
   57.53350        6.4595266E-18
   57.69500        6.4600589E-18
   57.85650        6.4602190E-18
   58.01800        6.4594886E-18
   58.17950        6.4579260E-18
   58.34100        6.4563382E-18
   58.50250        6.4557447E-18
   58.66400        6.4565450E-18
   58.82550        6.4581709E-18
   58.98700        6.4595746E-18
   59.14850        6.4601300E-18
   59.31000        6.4601375E-18
   59.47150        6.4604824E-18
   59.63300        6.4618043E-18
   59.79450        6.4639409E-18
   59.95600        6.4661234E-18
   60.11750        6.4676615E-18
   60.27900        6.4684548E-18
   60.44050        6.4688862E-18
   60.60200        6.4693361E-18
   60.76350        6.4698473E-18
   60.92500        6.4702469E-18
   61.08650        6.4704706E-18
   61.24800        6.4706741E-18
   61.40950        6.4710170E-18
   61.57100        6.4714202E-18
   61.73250        6.4716341E-18
   61.89400        6.4715484E-18
   62.05550        6.4713900E-18
   62.21700        6.4715551E-18
   62.37850        6.4722123E-18
   62.54000        6.4731131E-18
   62.70150        6.4738261E-18
   62.86300        6.4741822E-18
   63.02450        6.4744444E-18
   63.18600        6.4749945E-18
   63.34750        6.4758365E-18
   63.50900        6.4764503E-18
   63.67050        6.4762125E-18
   63.83200        6.4749912E-18
   63.99350        6.4733132E-18
   64.15500        6.4719091E-18
   64.31650        6.4710724E-18
   64.47800        6.4704491E-18
   64.63950        6.4694519E-18
   64.80100        6.4678849E-18
   64.96250        6.4661850E-18
   65.12400        6.4650898E-18
   65.28550        6.4650795E-18
   65.44700        6.4660944E-18
   65.60850        6.4677178E-18
   65.77000        6.4695661E-18
   65.93150        6.4714872E-18
   66.09300        6.4734642E-18
   66.25450        6.4754337E-18
   66.41600        6.4772779E-18
   66.57750        6.4789629E-18
   66.73900        6.4805750E-18
   66.90050        6.4821454E-18
   67.06200        6.4834462E-18
   67.22350        6.4840740E-18
   67.38500        6.4838246E-18
   67.54650        6.4830107E-18
   67.70800        6.4823489E-18
   67.86950        6.4824486E-18
   68.03100        6.4833585E-18
   68.19250        6.4845761E-18
   68.35400        6.4855253E-18
   68.51550        6.4860535E-18
   68.67700        6.4864898E-18
   68.83850        6.4872458E-18
   69.00000        6.4883729E-18
   69.16150        6.4895028E-18
   69.32300        6.4901997E-18
   69.48450        6.4903259E-18
   69.64600        6.4900574E-18
   69.80750        6.4895698E-18
   69.96900        6.4887790E-18
   70.13050        6.4874129E-18
   70.29200        6.4853289E-18
   70.45350        6.4827199E-18
   70.61500        6.4800068E-18
   70.77650        6.4775447E-18
   70.93800        6.4754552E-18
   71.09950        6.4737206E-18
   71.26100        6.4723926E-18
   71.42250        6.4716721E-18
   71.58400        6.4717941E-18
   71.74550        6.4728541E-18
   71.90700        6.4747620E-18
   72.06850        6.4773362E-18
   72.23000        6.4803931E-18
   72.39150        6.4837183E-18
   72.55300        6.4869936E-18
   72.71450        6.4898560E-18
   72.87600        6.4921113E-18
   73.03750        6.4939018E-18
   73.19900        6.4955797E-18
   73.36050        6.4973486E-18
   73.52200        6.4989877E-18
   73.68350        6.4999658E-18
   73.84500        6.4998922E-18
   74.00650        6.4988925E-18
   74.16800        6.4975744E-18
   74.32950        6.4965789E-18
   74.49100        6.4961256E-18
   74.65250        6.4959143E-18
   74.81400        6.4954569E-18
   74.97550        6.4945093E-18
   75.13700        6.4932603E-18
   75.29850        6.4921266E-18
   75.46000        6.4913991E-18
   75.62150        6.4910083E-18
   75.78300        6.4905918E-18
   75.94450        6.4897464E-18
   76.10600        6.4882773E-18
   76.26750        6.4863256E-18
   76.42900        6.4843276E-18
   76.59050        6.4828337E-18
   76.75200        6.4822228E-18
   76.91350        6.4824664E-18
   77.07500        6.4831244E-18
   77.23650        6.4836513E-18
   77.39800        6.4838209E-18
   77.55950        6.4839342E-18
   77.72100        6.4845947E-18
   77.88250        6.4862073E-18
   78.04400        6.4886045E-18
   78.20550        6.4911452E-18
   78.36700        6.4932239E-18
   78.52850        6.4947641E-18
   78.69000        6.4962700E-18
   78.85150        6.4983590E-18
   79.01300        6.5011627E-18
   79.17450        6.5040906E-18
   79.33600        6.5061511E-18
   79.49750        6.5065725E-18
   79.65900        6.5052594E-18
   79.82050        6.5027890E-18
   79.98200        6.5000130E-18
   80.14350        6.4975682E-18
   80.30500        6.4955855E-18
   80.46650        6.4937504E-18
   80.62800        6.4916460E-18
   80.78950        6.4891786E-18
   80.95100        6.4867967E-18
   81.11250        6.4853181E-18
   81.27400        6.4854054E-18
   81.43550        6.4870345E-18
   81.59700        6.4893643E-18
   81.75850        6.4912060E-18
   81.92000        6.4918119E-18
   82.08150        6.4913921E-18
   82.24300        6.4909297E-18
   82.40450        6.4913731E-18
   82.56600        6.4928359E-18
   82.72750        6.4944597E-18
   82.88900        6.4950735E-18
   83.05050        6.4941259E-18
   83.21200        6.4921399E-18
   83.37350        6.4903680E-18
   83.53500        6.4899292E-18
   83.69650        6.4911233E-18
   83.85800        6.4933715E-18
   84.01950        6.4957286E-18
   84.18100        6.4975294E-18
   84.34250        6.4987275E-18
   84.50400        6.4997776E-18
   84.66550        6.5012103E-18
   84.82700        6.5032063E-18
   84.98850        6.5053929E-18
   85.15000        6.5069919E-18
   85.31150        6.5072624E-18
   85.47300        6.5060187E-18
   85.63450        6.5038689E-18
   85.79600        6.5019291E-18
   85.95750        6.5011069E-18
   86.11900        6.5014233E-18
   86.28050        6.5019486E-18
   86.44200        6.5014725E-18
   86.60350        6.4994406E-18
   86.76500        6.4963957E-18
   86.92650        6.4935345E-18
   87.08800        6.4917461E-18
   87.24950        6.4909413E-18
   87.41100        6.4902502E-18
   87.57250        6.4888919E-18
   87.73400        6.4869518E-18
   87.89550        6.4854029E-18
   88.05700        6.4853706E-18
   88.21850        6.4872736E-18
   88.38000        6.4905248E-18
   88.54150        6.4939568E-18
   88.70300        6.4965727E-18
   88.86450        6.4980472E-18
   89.02600        6.4987093E-18
   89.18750        6.4991709E-18
   89.34900        6.4999075E-18
   89.51050        6.5010081E-18
   89.67200        6.5021558E-18
   89.83350        6.5028204E-18
   89.99500        6.5026289E-18
   90.15650        6.5017509E-18
   90.31800        6.5009795E-18
   90.47950        6.5013224E-18
   90.64100        6.5032799E-18
   90.80250        6.5063599E-18
   90.96400        6.5093047E-18
   91.12550        6.5109777E-18
   91.28700        6.5112180E-18
   91.44850        6.5109222E-18
   91.61000        6.5112163E-18
   91.77150        6.5123950E-18
   91.93300        6.5135643E-18
   92.09450        6.5133273E-18
   92.25600        6.5109549E-18
   92.41750        6.5070304E-18
   92.57900        6.5030380E-18
   92.74050        6.5002938E-18
   92.90200        6.4991208E-18
   93.06350        6.4988872E-18
   93.22500        6.4987205E-18
   93.38650        6.4982118E-18
   93.54800        6.4975732E-18
   93.70950        6.4972841E-18
   93.87100        6.4976489E-18
   94.03250        6.4985886E-18
   94.19400        6.4996957E-18
   94.35550        6.5004009E-18
   94.51700        6.5001726E-18
   94.67850        6.4987846E-18
   94.84000        6.4965802E-18
   95.00150        6.4944758E-18
   95.16300        6.4935072E-18
   95.32450        6.4940953E-18
   95.48600        6.4956256E-18
   95.64750        6.4968138E-18
   95.80900        6.4967022E-18
   95.97050        6.4954651E-18
   96.13200        6.4942827E-18
   96.29350        6.4943191E-18
   96.45500        6.4957029E-18
   96.61650        6.4974326E-18
   96.77800        6.4983086E-18
   96.93950        6.4980393E-18
   97.10100        6.4975298E-18
   97.26250        6.4981055E-18
   97.42400        6.5004096E-18
   97.58550        6.5039363E-18
   97.74700        6.5075333E-18
   97.90850        6.5103105E-18
   98.07000        6.5121444E-18
   98.23150        6.5134290E-18
   98.39300        6.5145076E-18
   98.55450        6.5153679E-18
   98.71600        6.5157852E-18
   98.87750        6.5155913E-18
   99.03900        6.5147434E-18
   99.20050        6.5132259E-18
   99.36200        6.5110517E-18
   99.52350        6.5084601E-18
   99.68500        6.5060216E-18
   99.84650        6.5043710E-18
   100.0080        6.5036836E-18
   100.1695        6.5034321E-18
   100.3310        6.5028088E-18
   100.4925        6.5015308E-18
   100.6540        6.5002524E-18
   100.8155        6.5000713E-18
   100.9770        6.5014700E-18
   101.1385        6.5036703E-18
   101.3000        6.5051096E-18
   101.4615        6.5046985E-18
   101.6230        6.5027435E-18
   101.7845        6.5006735E-18
   101.9460        6.4998186E-18
   102.1075        6.5003533E-18
   102.2690        6.5013212E-18
   102.4305        6.5016284E-18
   102.5920        6.5010358E-18
   102.7535        6.5002748E-18
   102.9150        6.5003236E-18
   103.0765        6.5015904E-18
   103.2380        6.5037005E-18
   103.3995        6.5059099E-18
   103.5610        6.5076363E-18
   103.7225        6.5086413E-18
   103.8840        6.5089267E-18
   104.0455        6.5086458E-18
   104.2070        6.5081590E-18
   104.3685        6.5080035E-18
   104.5300        6.5085743E-18
   104.6915        6.5096951E-18
   104.8530        6.5105926E-18
   105.0145        6.5104735E-18
   105.1760        6.5092733E-18
   105.3375        6.5078191E-18
   105.4990        6.5071404E-18
   105.6605        6.5075052E-18
   105.8220        6.5081135E-18
   105.9835        6.5078067E-18
   106.1450        6.5061788E-18
   106.3065        6.5040293E-18
   106.4680        6.5027071E-18
   106.6295        6.5029271E-18
   106.7910        6.5041667E-18
   106.9525        6.5051725E-18
   107.1140        6.5050923E-18
   107.2755        6.5041745E-18
   107.4370        6.5034329E-18
   107.5985        6.5036985E-18
   107.7600        6.5049512E-18
   107.9215        6.5064852E-18
   108.0830        6.5076032E-18
   108.2445        6.5081177E-18
   108.4060        6.5083079E-18
   108.5675        6.5085176E-18
   108.7290        6.5088894E-18
   108.8905        6.5094031E-18
   109.0520        6.5100037E-18
   109.2135        6.5105839E-18
   109.3750        6.5108891E-18
   109.5365        6.5106075E-18
   109.6980        6.5097179E-18
   109.8595        6.5087674E-18
   110.0210        6.5086475E-18
   110.1825        6.5099031E-18
   110.3440        6.5121378E-18
   110.5055        6.5141590E-18
   110.6670        6.5148563E-18
   110.8285        6.5140800E-18
   110.9900        6.5127015E-18
   111.1515        6.5117680E-18
   111.3130        6.5115224E-18
   111.4745        6.5112043E-18
   111.6360        6.5097989E-18
   111.7975        6.5070324E-18
   111.9590        6.5036856E-18
   112.1205        6.5009750E-18
   112.2820        6.4996048E-18
   112.4435        6.4993450E-18
   112.6050        6.4994257E-18
   112.7665        6.4992929E-18
   112.9280        6.4990009E-18
   113.0895        6.4989806E-18
   113.2510        6.4995357E-18
   113.4125        6.5005949E-18
   113.5740        6.5018807E-18
   113.7355        6.5031856E-18
   113.8970        6.5044264E-18
   114.0585        6.5055112E-18
   114.2200        6.5062673E-18
   114.3815        6.5066068E-18
   114.5430        6.5067119E-18
   114.7045        6.5069538E-18
   114.8660        6.5075387E-18
   115.0275        6.5082356E-18
   115.1890        6.5085478E-18
   115.3505        6.5082314E-18
   115.5120        6.5076549E-18
   115.6735        6.5075717E-18
   115.8350        6.5084349E-18
   115.9965        6.5098957E-18
   116.1580        6.5110215E-18
   116.3195        6.5110798E-18
   116.4810        6.5101741E-18
   116.6425        6.5091335E-18
   116.8040        6.5087662E-18
   116.9655        6.5091972E-18
   117.1270        6.5098763E-18
   117.2885        6.5101956E-18
   117.4500        6.5100707E-18
   117.6115        6.5099424E-18
   117.7730        6.5102613E-18
   117.9345        6.5110103E-18
   118.0960        6.5117143E-18
   118.2575        6.5118640E-18
   118.4190        6.5113015E-18
   118.5805        6.5102059E-18
   118.7420        6.5088262E-18