  -27.90000        6.0102848E-18
  -27.73850        6.0123329E-18
  -27.57700        6.0155155E-18
  -27.41550        6.0187150E-18
  -27.25400        6.0213719E-18
  -27.09250        6.0237236E-18
  -26.93100        6.0263867E-18
  -26.76950        6.0296830E-18
  -26.60800        6.0332978E-18
  -26.44650        6.0365540E-18
  -26.28500        6.0390165E-18
  -26.12350        6.0408897E-18
  -25.96200        6.0428356E-18
  -25.80050        6.0453842E-18
  -25.63900        6.0484513E-18
  -25.47750        6.0514197E-18
  -25.31600        6.0537039E-18
  -25.15450        6.0552983E-18
  -24.99300        6.0567997E-18
  -24.83150        6.0588664E-18
  -24.67000        6.0615973E-18
  -24.50850        6.0644015E-18
  -24.34700        6.0664917E-18
  -24.18550        6.0675816E-18
  -24.02400        6.0681759E-18
  -23.86250        6.0691937E-18
  -23.70100        6.0712162E-18
  -23.53950        6.0740009E-18
  -23.37800        6.0766702E-18
  -23.21650        6.0784246E-18
  -23.05500        6.0791857E-18
  -22.89350        6.0796245E-18
  -22.73200        6.0805633E-18
  -22.57050        6.0822876E-18
  -22.40900        6.0843576E-18
  -22.24750        6.0860728E-18
  -22.08600        6.0871282E-18
  -21.92450        6.0878727E-18
  -21.76300        6.0889414E-18
  -21.60150        6.0906247E-18
  -21.44000        6.0925657E-18
  -21.27850        6.0940733E-18
  -21.11700        6.0947813E-18
  -20.95550        6.0950535E-18
  -20.79400        6.0957458E-18
  -20.63250        6.0975032E-18
  -20.47100        6.1001915E-18
  -20.30950        6.1029754E-18
  -20.14800        6.1050020E-18
  -19.98650        6.1060905E-18
  -19.82500        6.1068275E-18
  -19.66350        6.1079761E-18
  -19.50200        6.1097417E-18
  -19.34050        6.1115665E-18
  -19.17900        6.1126455E-18
  -19.01750        6.1127109E-18
  -18.85600        6.1123655E-18
  -18.69450        6.1126658E-18
  -18.53300        6.1142867E-18
  -18.37150        6.1169866E-18
  -18.21000        6.1198354E-18
  -18.04850        6.1220084E-18
  -17.88700        6.1234642E-18
  -17.72550        6.1249043E-18
  -17.56400        6.1270579E-18
  -17.40250        6.1299233E-18
  -17.24100        6.1326732E-18
  -17.07950        6.1343197E-18
  -16.91800        6.1345724E-18
  -16.75650        6.1341212E-18
  -16.59500        6.1340968E-18
  -16.43350        6.1351742E-18
  -16.27200        6.1370858E-18
  -16.11050        6.1389412E-18
  -15.94900        6.1400389E-18
  -15.78750        6.1404533E-18
  -15.62600        6.1409053E-18
  -15.46450        6.1420609E-18
  -15.30300        6.1439055E-18
  -15.14150        6.1457654E-18
  -14.98000        6.1469545E-18
  -14.81850        6.1474429E-18
  -14.65700        6.1479082E-18
  -14.49550        6.1491163E-18
  -14.33400        6.1511888E-18
  -14.17250        6.1534487E-18
  -14.01100        6.1550112E-18
  -13.84950        6.1555940E-18
  -13.68800        6.1558124E-18
  -13.52650        6.1566900E-18
  -13.36500        6.1587948E-18
  -13.20350        6.1617565E-18
  -13.04200        6.1645896E-18
  -12.88050        6.1665351E-18
  -12.71900        6.1676956E-18
  -12.55750        6.1688996E-18
  -12.39600        6.1709080E-18
  -12.23450        6.1736766E-18
  -12.07300        6.1763372E-18
  -11.91150        6.1779419E-18
  -11.75000        6.1783034E-18
  -11.58850        6.1781950E-18
  -11.42700        6.1787054E-18
  -11.26550        6.1803246E-18
  -11.10400        6.1825439E-18
  -10.94250        6.1843112E-18
  -10.78100        6.1849345E-18
  -10.61950        6.1846520E-18
  -10.45800        6.1843981E-18
  -10.29650        6.1849870E-18
  -10.13500        6.1864143E-18
  -9.973500        6.1878755E-18
  -9.812000        6.1884595E-18
  -9.650500        6.1879177E-18
  -9.489000        6.1868498E-18
  -9.327500        6.1861885E-18
  -9.166000        6.1864817E-18
  -9.004500        6.1875914E-18
  -8.843000        6.1890075E-18
  -8.681500        6.1904059E-18
  -8.520000        6.1918704E-18
  -8.358500        6.1936108E-18
  -8.197000        6.1955083E-18
  -8.035500        6.1970113E-18
  -7.874000        6.1975635E-18
  -7.712500        6.1971991E-18
  -7.551000        6.1967185E-18
  -7.389500        6.1971735E-18
  -7.228000        6.1990019E-18
  -7.066500        6.2015534E-18
  -6.905000        6.2034778E-18
  -6.743500        6.2037710E-18
  -6.582000        6.2026506E-18
  -6.420500        6.2015203E-18
  -6.259000        6.2019715E-18
  -6.097500        6.2045941E-18
  -5.936000        6.2085203E-18
  -5.774500        6.2120536E-18
  -5.613000        6.2138862E-18
  -5.451500        6.2139714E-18
  -5.290000        6.2134333E-18
  -5.128500        6.2136625E-18
  -4.967000        6.2153317E-18
  -4.805500        6.2180569E-18
  -4.644000        6.2208544E-18
  -4.482500        6.2229211E-18
  -4.321000        6.2240990E-18
  -4.159500        6.2247413E-18
  -3.998000        6.2252662E-18
  -3.836500        6.2258779E-18
  -3.675000        6.2266715E-18
  -3.513500        6.2278730E-18
  -3.352000        6.2298289E-18
  -3.190500        6.2326632E-18
  -3.029000        6.2359223E-18
  -2.867500        6.2386537E-18
  -2.706000        6.2400032E-18
  -2.544500        6.2399048E-18
  -2.383000        6.2392794E-18
  -2.221500        6.2394709E-18
  -2.060000        6.2412812E-18
  -1.898500        6.2443385E-18
  -1.737000        6.2473358E-18
  -1.575500        6.2490017E-18
  -1.414000        6.2490563E-18
  -1.252500        6.2483842E-18
  -1.091000        6.2482916E-18
 -0.9295000        6.2494649E-18
 -0.7680000        6.2514766E-18
 -0.6065000        6.2532079E-18
 -0.4450000        6.2537845E-18
 -0.2835000        6.2532443E-18
 -0.1220000        6.2524213E-18
  3.9500002E-02    6.2522012E-18
  0.2010000        6.2528249E-18
  0.3625000        6.2538027E-18
  0.5240000        6.2544731E-18
  0.6855000        6.2546654E-18
  0.8470000        6.2548726E-18
   1.008500        6.2557751E-18
   1.170000        6.2575643E-18
   1.331500        6.2596909E-18
   1.493000        6.2612845E-18
   1.654500        6.2618623E-18
   1.816000        6.2617179E-18
   1.977500        6.2616514E-18
   2.139000        6.2623148E-18
   2.300500        6.2637458E-18
   2.462000        6.2654527E-18
   2.623500        6.2669209E-18
   2.785000        6.2680521E-18
   2.946500        6.2691560E-18
   3.108000        6.2705502E-18
   3.269500        6.2721872E-18
   3.431000        6.2737030E-18
   3.592500        6.2748532E-18
   3.754000        6.2758880E-18
   3.915500        6.2774211E-18
   4.077000        6.2798187E-18
   4.238500        6.2826431E-18
   4.400000        6.2847413E-18
   4.561500        6.2850407E-18
   4.723000        6.2834521E-18
   4.884500        6.2811091E-18
   5.046000        6.2796620E-18
   5.207500        6.2801099E-18
   5.369000        6.2820571E-18
   5.530500        6.2839947E-18
   5.692000        6.2844170E-18
   5.853500        6.2829467E-18
   6.015000        6.2806174E-18
   6.176500        6.2791032E-18
   6.338000        6.2795110E-18
   6.499500        6.2816592E-18
   6.661000        6.2843409E-18
   6.822500        6.2862769E-18
   6.984000        6.2869656E-18
   7.145500        6.2868398E-18
   7.307000        6.2867728E-18
   7.468500        6.2874420E-18
   7.630000        6.2890509E-18
   7.791500        6.2914601E-18
   7.953000        6.2944412E-18
   8.114500        6.2977317E-18
   8.276000        6.3009019E-18
   8.437500        6.3033160E-18
   8.599000        6.3044187E-18
   8.760500        6.3042255E-18
   8.922000        6.3035716E-18
   9.083500        6.3037065E-18
   9.245000        6.3054080E-18
   9.406500        6.3082679E-18
   9.568000        6.3108322E-18
   9.729500        6.3116060E-18
   9.891000        6.3102131E-18
   10.05250        6.3077630E-18
   10.21400        6.3060995E-18
   10.37550        6.3064523E-18
   10.53700        6.3085347E-18
   10.69850        6.3107751E-18
   10.86000        6.3115097E-18
   11.02150        6.3102197E-18
   11.18300        6.3078672E-18
   11.34450        6.3061007E-18
   11.50600        6.3060097E-18
   11.66750        6.3074209E-18
   11.82900        6.3092386E-18
   11.99050        6.3104376E-18
   12.15200        6.3108380E-18
   12.31350        6.3110680E-18
   12.47500        6.3118927E-18
   12.63650        6.3135917E-18
   12.79800        6.3158912E-18
   12.95950        6.3184001E-18
   13.12100        6.3210305E-18
   13.28250        6.3239724E-18
   13.44400        6.3272749E-18
   13.60550        6.3304997E-18
   13.76700        6.3328939E-18
   13.92850        6.3340094E-18
   14.09000        6.3342079E-18
   14.25150        6.3344995E-18
   14.41300        6.3357374E-18
   14.57450        6.3378421E-18
   14.73600        6.3397910E-18
   14.89750        6.3404585E-18
   15.05900        6.3396305E-18
   15.22050        6.3382859E-18
   15.38200        6.3378628E-18
   15.54350        6.3390800E-18
   15.70500        6.3413035E-18
   15.86650        6.3430013E-18
   16.02800        6.3429446E-18
   16.18950        6.3411914E-18
   16.35100        6.3390358E-18
   16.51250        6.3379737E-18
   16.67400        6.3385357E-18
   16.83550        6.3399548E-18
   16.99700        6.3409110E-18
   17.15850        6.3406657E-18
   17.32000        6.3396106E-18
   17.48150        6.3388145E-18
   17.64300        6.3390506E-18
   17.80450        6.3401893E-18
   17.96600        6.3414400E-18
   18.12750        6.3421356E-18
   18.28900        6.3423180E-18
   18.45050        6.3426084E-18
   18.61200        6.3435472E-18
   18.77350        6.3450444E-18
   18.93500        6.3464787E-18
   19.09650        6.3473324E-18
   19.25800        6.3477269E-18
   19.41950        6.3483043E-18
   19.58100        6.3495343E-18
   19.74250        6.3511238E-18
   19.90400        6.3521639E-18
   20.06550        6.3519613E-18
   20.22700        6.3507863E-18
   20.38850        6.3498036E-18
   20.55000        6.3501349E-18
   20.71150        6.3518384E-18
   20.87300        6.3537170E-18
   21.03450        6.3541972E-18
   21.19600        6.3526127E-18
   21.35750        6.3498379E-18
   21.51900        6.3477013E-18
   21.68050        6.3476182E-18
   21.84200        6.3495343E-18
   22.00350        6.3520341E-18
   22.16500        6.3535197E-18
   22.32650        6.3534684E-18
   22.48800        6.3527574E-18
   22.64950        6.3528526E-18
   22.81100        6.3546025E-18
   22.97250        6.3576341E-18
   23.13400        6.3607492E-18
   23.29550        6.3628747E-18
   23.45700        6.3637412E-18
   23.61850        6.3638255E-18
   23.78000        6.3637780E-18
   23.94150        6.3639480E-18
   24.10300        6.3643909E-18
   24.26450        6.3652123E-18
   24.42600        6.3667389E-18
   24.58750        6.3692336E-18
   24.74900        6.3724034E-18
   24.91050        6.3752956E-18
   25.07200        6.3768776E-18
   25.23350        6.3769177E-18
   25.39500        6.3763809E-18
   25.55650        6.3768474E-18
   25.71800        6.3793104E-18
   25.87950        6.3832850E-18
   26.04100        6.3870234E-18
   26.20250        6.3887324E-18
   26.36400        6.3878911E-18
   26.52550        6.3856424E-18
   26.68700        6.3839351E-18
   26.84850        6.3840869E-18
   27.01000        6.3858550E-18
   27.17150        6.3877095E-18
   27.33300        6.3880441E-18
   27.49450        6.3863381E-18
   27.65600        6.3834185E-18
   27.81750        6.3807190E-18
   27.97900        6.3792396E-18
   28.14050        6.3790134E-18
   28.30200        6.3793687E-18
   28.46350        6.3795970E-18
   28.62500        6.3794067E-18
   28.78650        6.3788868E-18
   28.94800        6.3781829E-18
   29.10950        6.3773173E-18
   29.27100        6.3763259E-18
   29.43250        6.3755086E-18
   29.59400        6.3754276E-18
   29.75550        6.3765070E-18
   29.91700        6.3785651E-18
   30.07850        6.3807484E-18
   30.24000        6.3820673E-18
   30.40150        6.3821745E-18
   30.56300        6.3817199E-18
   30.72450        6.3819230E-18
   30.88600        6.3836315E-18
   31.04750        6.3866251E-18
   31.20900        6.3897490E-18
   31.37050        6.3918066E-18
   31.53200        6.3925117E-18
   31.69350        6.3927260E-18
   31.85500        6.3937765E-18
   32.01650        6.3963734E-18
   32.17800        6.3999857E-18
   32.33950        6.4031857E-18
   32.50100        6.4046887E-18
   32.66250        6.4042771E-18
   32.82400        6.4028767E-18
   32.98550        6.4017654E-18
   33.14700        6.4015801E-18
   33.30850        6.4019143E-18
   33.47000        6.4017799E-18
   33.63150        6.4004845E-18
   33.79300        6.3982003E-18
   33.95450        6.3958002E-18
   34.11600        6.3941798E-18
   34.27750        6.3936404E-18
   34.43900        6.3938328E-18
   34.60050        6.3941934E-18
   34.76200        6.3944420E-18
   34.92350        6.3946938E-18
   35.08500        6.3951724E-18
   35.24650        6.3958920E-18
   35.40800        6.3966811E-18
   35.56950        6.3975087E-18
   35.73100        6.3987086E-18
   35.89250        6.4007525E-18
   36.05400        6.4036832E-18
   36.21550        6.4067678E-18
   36.37700        6.4088204E-18
   36.53850        6.4090975E-18
   36.70000        6.4080532E-18
   36.86150        6.4072397E-18
   37.02300        6.4082658E-18
   37.18450        6.4115361E-18
   37.34600        6.4157965E-18
   37.50750        6.4189526E-18
   37.66900        6.4196114E-18
   37.83050        6.4181556E-18
   37.99200        6.4164731E-18
   38.15350        6.4165128E-18
   38.31500        6.4187979E-18
   38.47650        6.4220574E-18
   38.63800        6.4242312E-18
   38.79950        6.4240153E-18
   38.96100        6.4217240E-18
   39.12250        6.4188835E-18
   39.28400        6.4169967E-18
   39.44550        6.4165198E-18
   39.60700        6.4167928E-18
   39.76850        6.4167965E-18
   39.93000        6.4159702E-18
   40.09150        6.4144196E-18
   40.25300        6.4125274E-18
   40.41450        6.4105178E-18
   40.57600        6.4084825E-18
   40.73750        6.4067430E-18
   40.89900        6.4060117E-18
   41.06050        6.4069676E-18
   41.22200        6.4095206E-18
   41.38350        6.4125308E-18
   41.54500        6.4144630E-18
   41.70650        6.4145937E-18
   41.86800        6.4137719E-18
   42.02950        6.4139241E-18
   42.19100        6.4165513E-18
   42.35250        6.4213775E-18
   42.51400        6.4263405E-18
   42.67550        6.4290657E-18
   42.83700        6.4287121E-18
   42.99850        6.4266962E-18
   43.16000        6.4256453E-18
   43.32150        6.4273791E-18
   43.48300        6.4315228E-18
   43.64450        6.4358473E-18
   43.80600        6.4380265E-18
   43.96750        6.4373693E-18
   44.12900        6.4351885E-18
   44.29050        6.4336325E-18
   44.45200        6.4340325E-18
   44.61350        6.4361071E-18
   44.77500        6.4384947E-18
   44.93650        6.4399712E-18
   45.09800        6.4402442E-18
   45.25950        6.4398033E-18
   45.42100        6.4391875E-18
   45.58250        6.4385129E-18
   45.74400        6.4376568E-18
   45.90550        6.4367564E-18
   46.06700        6.4363167E-18
   46.22850        6.4366906E-18
   46.39000        6.4374624E-18
   46.55150        6.4374860E-18
   46.71300        6.4357993E-18
   46.87450        6.4326796E-18
   47.03600        6.4298035E-18
   47.19750        6.4291352E-18
   47.35900        6.4313148E-18
   47.52050        6.4349225E-18
   47.68200        6.4373764E-18
   47.84350        6.4368842E-18
   48.00500        6.4339006E-18
   48.16650        6.4308561E-18
   48.32800        6.4303048E-18
   48.48950        6.4329456E-18
   48.65100        6.4370997E-18
   48.81250        6.4400527E-18
   48.97400        6.4401433E-18
   49.13550        6.4379471E-18
   49.29700        6.4356715E-18
   49.45850        6.4353791E-18
   49.62000        6.4375162E-18
   49.78150        6.4408567E-18
   49.94300        6.4436960E-18
   50.10450        6.4451730E-18
   50.26600        6.4456544E-18
   50.42750        6.4460829E-18
   50.58900        6.4470540E-18
   50.75050        6.4484718E-18
   50.91200        6.4499264E-18
   51.07350        6.4512283E-18
   51.23500        6.4524716E-18
   51.39650        6.4536003E-18
   51.55800        6.4540784E-18
   51.71950        6.4531743E-18
   51.88100        6.4507407E-18
   52.04250        6.4477157E-18
   52.20400        6.4456875E-18
   52.36550        6.4456891E-18
   52.52700        6.4472223E-18
   52.68850        6.4484527E-18
   52.85000        6.4476073E-18
   53.01150        6.4444847E-18
   53.17300        6.4408005E-18
   53.33450        6.4389708E-18
   53.49600        6.4402541E-18
   53.65750        6.4437448E-18
   53.81900        6.4470593E-18
   53.98050        6.4481946E-18
   54.14200        6.4470713E-18
   54.30350        6.4455522E-18
   54.46500        6.4459530E-18
   54.62650        6.4492708E-18
   54.78800        6.4545197E-18
   54.94950        6.4595870E-18
   55.11100        6.4628155E-18
   55.27250        6.4640170E-18
   55.43400        6.4642544E-18
   55.59550        6.4647643E-18
   55.75700        6.4660303E-18
   55.91850        6.4676636E-18
   56.08000        6.4689788E-18
   56.24150        6.4695971E-18
   56.40300        6.4695467E-18
   56.56450        6.4689561E-18
   56.72600        6.4678050E-18
   56.88750        6.4660886E-18
   57.04900        6.4641733E-18
   57.21050        6.4628539E-18
   57.37200        6.4628419E-18
   57.53350        6.4640542E-18
   57.69500        6.4654087E-18
   57.85650        6.4655013E-18
   58.01800        6.4637312E-18
   58.17950        6.4609365E-18
   58.34100        6.4589091E-18
   58.50250        6.4590601E-18
   58.66400        6.4612798E-18
   58.82550        6.4639454E-18
   58.98700        6.4651237E-18
   59.14850        6.4640583E-18
   59.31000        6.4617563E-18
   59.47150        6.4602090E-18
   59.63300        6.4608629E-18
   59.79450        6.4635401E-18
   59.95600        6.4666218E-18
   60.11750        6.4682927E-18
   60.27900        6.4678257E-18
   60.44050        6.4659373E-18
   60.60200        6.4640670E-18
   60.76350        6.4632547E-18
   60.92500        6.4635136E-18
   61.08650        6.4640625E-18
   61.24800        6.4640807E-18
   61.40950        6.4633093E-18
   61.57100        6.4621020E-18
   61.73250        6.4610470E-18
   61.89400        6.4605800E-18
   62.05550        6.4608840E-18
   62.21700        6.4620011E-18
   62.37850        6.4638933E-18
   62.54000        6.4663182E-18
   62.70150        6.4687054E-18
   62.86300        6.4703081E-18
   63.02450        6.4706634E-18
   63.18600        6.4700120E-18
   63.34750        6.4692596E-18
   63.50900        6.4693705E-18
   63.67050        6.4706150E-18
   63.83200        6.4722892E-18
   63.99350        6.4731958E-18
   64.15500        6.4725824E-18
   64.31650        6.4708040E-18
   64.47800        6.4691686E-18
   64.63950        6.4690342E-18
   64.80100        6.4708172E-18
   64.96250        6.4736768E-18
   65.12400        6.4761199E-18
   65.28550        6.4770674E-18
   65.44700        6.4765893E-18
   65.60850        6.4757774E-18
   65.77000        6.4759027E-18
   65.93150        6.4775103E-18
   66.09300        6.4801110E-18
   66.25450        6.4826095E-18
   66.41600        6.4840819E-18
   66.57750        6.4843172E-18
   66.73900        6.4837924E-18
   66.90050        6.4832013E-18
   67.06200        6.4829553E-18
   67.22350        6.4829970E-18
   67.38500        6.4829772E-18
   67.54650        6.4825628E-18
   67.70800        6.4816334E-18
   67.86950        6.4802706E-18
   68.03100        6.4786527E-18
   68.19250        6.4769991E-18
   68.35400        6.4755739E-18
   68.51550        6.4746648E-18
   68.67700        6.4744618E-18
   68.83850        6.4749060E-18
   69.00000        6.4756657E-18
   69.16150        6.4763329E-18
   69.32300        6.4767278E-18
   69.48450        6.4770765E-18
   69.64600        6.4778718E-18
   69.80750        6.4794757E-18
   69.96900        6.4817579E-18
   70.13050        6.4840748E-18
   70.29200        6.4856589E-18
   70.45350        6.4861469E-18
   70.61500        6.4858471E-18
   70.77650        6.4855096E-18
   70.93800        6.4857561E-18
   71.09950        6.4866151E-18
   71.26100        6.4875221E-18
   71.42250        6.4878058E-18
   71.58400        6.4872583E-18
   71.74550        6.4863413E-18
   71.90700        6.4858409E-18
   72.06850        6.4862532E-18
   72.23000        6.4873807E-18
   72.39150        6.4884606E-18
   72.55300        6.4887319E-18
   72.71450        6.4879808E-18
   72.87600        6.4866557E-18
   73.03750        6.4854782E-18
   73.19900        6.4848880E-18
   73.36050        6.4847689E-18
   73.52200        6.4846568E-18
   73.68350        6.4842060E-18
   73.84500        6.4835082E-18
   74.00650        6.4830024E-18
   74.16800        6.4830926E-18
   74.32950        6.4838341E-18
   74.49100        6.4849504E-18
   74.65250        6.4861229E-18
   74.81400        6.4872698E-18
   74.97550        6.4885375E-18
   75.13700        6.4900430E-18
   75.29850        6.4916274E-18
   75.46000        6.4928922E-18
   75.62150        6.4935134E-18
   75.78300        6.4935465E-18
   75.94450        6.4934170E-18
   76.10600        6.4935647E-18
   76.26750        6.4940349E-18
   76.42900        6.4944043E-18
   76.59050        6.4941247E-18
   76.75200        6.4930010E-18
   76.91350        6.4913801E-18
   77.07500        6.4898767E-18
   77.23650        6.4888729E-18
   77.39800        6.4882289E-18
   77.55950        6.4874543E-18
   77.72100        6.4861804E-18
   77.88250        6.4845219E-18
   78.04400        6.4830090E-18
   78.20550        6.4821595E-18
   78.36700        6.4820797E-18
   78.52850        6.4824552E-18
   78.69000        6.4829247E-18
   78.85150        6.4834727E-18
   79.01300        6.4844450E-18
   79.17450        6.4861672E-18
   79.33600        6.4885139E-18
   79.49750        6.4908710E-18
   79.65900        6.4925625E-18
   79.82050        6.4933835E-18
   79.98200        6.4937706E-18
   80.14350        6.4944394E-18
   80.30500        6.4957708E-18
   80.46650        6.4974681E-18
   80.62800        6.4987883E-18
   80.78950        6.4991680E-18
   80.95100        6.4987412E-18
   81.11250        6.4982982E-18
   81.27400        6.4987097E-18
   81.43550        6.5002719E-18
   81.59700        6.5024949E-18
   81.75850        6.5044926E-18
   81.92000        6.5056233E-18
   82.08150        6.5058810E-18
   82.24300        6.5057644E-18
   82.40450        6.5057925E-18
   82.56600        6.5060832E-18
   82.72750        6.5062995E-18
   82.88900        6.5059625E-18
   83.05050        6.5048321E-18
   83.21200        6.5030620E-18
   83.37350        6.5010292E-18
   83.53500        6.4990419E-18
   83.69650        6.4971886E-18
   83.85800        6.4954155E-18
   84.01950        6.4937123E-18
   84.18100        6.4921655E-18
   84.34250        6.4908379E-18
   84.50400        6.4896265E-18
   84.66550        6.4882960E-18
   84.82700        6.4867074E-18
   84.98850        6.4850369E-18
   85.15000        6.4837456E-18
   85.31150        6.4832568E-18
   85.47300        6.4835814E-18
   85.63450        6.4842171E-18
   85.79600        6.4844839E-18
   85.95750        6.4840732E-18
   86.11900        6.4833680E-18
   86.28050        6.4832030E-18
   86.44200        6.4841981E-18
   86.60350        6.4861862E-18
   86.76500        6.4882608E-18
   86.92650        6.4894569E-18
   87.08800        6.4895384E-18
   87.24950        6.4892303E-18
   87.41100        6.4896637E-18
   87.57250        6.4914665E-18
   87.73400        6.4942318E-18
   87.89550        6.4968209E-18
   88.05700        6.4982709E-18
   88.21850        6.4985662E-18
   88.38000        6.4986365E-18
   88.54150        6.4995783E-18
   88.70300        6.5017484E-18
   88.86450        6.5044909E-18
   89.02600        6.5066987E-18
   89.18750        6.5077099E-18
   89.34900        6.5077632E-18
   89.51050        6.5076677E-18
   89.67200        6.5080391E-18
   89.83350        6.5087869E-18
   89.99500        6.5092670E-18
   90.15650        6.5088927E-18
   90.31800        6.5076239E-18
   90.47950        6.5059414E-18
   90.64100        6.5043978E-18
   90.80250        6.5032179E-18
   90.96400        6.5023001E-18
   91.12550        6.5015457E-18
   91.28700        6.5010900E-18
   91.44850        6.5011582E-18
   91.61000        6.5016793E-18
   91.77150        6.5021310E-18
   91.93300        6.5018812E-18
   92.09450        6.5007715E-18
   92.25600        6.4993690E-18
   92.41750        6.4985513E-18
   92.57900        6.4987271E-18
   92.74050        6.4993872E-18
   92.90200        6.4994633E-18
   93.06350        6.4982461E-18
   93.22500        6.4960996E-18
   93.38650        6.4943029E-18
   93.54800        6.4940763E-18
   93.70950        6.4955797E-18
   93.87100        6.4977258E-18
   94.03250        6.4990050E-18
   94.19400        6.4986688E-18
   94.35550        6.4972965E-18
   94.51700        6.4962969E-18
   94.67850        6.4967746E-18
   94.84000        6.4986903E-18
   95.00150        6.5009539E-18
   95.16300        6.5022890E-18
   95.32450        6.5021363E-18
   95.48600        6.5009253E-18
   95.64750        6.4996184E-18
   95.80900        6.4989906E-18
   95.97050        6.4991957E-18
   96.13200        6.4998244E-18
   96.29350        6.5002859E-18
   96.45500        6.5001557E-18
   96.61650        6.4993185E-18
   96.77800        6.4979520E-18
   96.93950        6.4964619E-18
   97.10100        6.4953692E-18
   97.26250        6.4950970E-18
   97.42400        6.4956732E-18
   97.58550        6.4965926E-18
   97.74700        6.4970413E-18
   97.90850        6.4964615E-18
   98.07000        6.4950412E-18
   98.23150        6.4937136E-18
   98.39300        6.4935742E-18
   98.55450        6.4951111E-18
   98.71600        6.4978309E-18
   98.87750        6.5005713E-18
   99.03900        6.5022728E-18
   99.20050        6.5026339E-18
   99.36200        6.5022009E-18
   99.52350        6.5018836E-18
   99.68500        6.5023030E-18
   99.84650        6.5034511E-18
   100.0080        6.5048164E-18
   100.1695        6.5057933E-18
   100.3310        6.5060444E-18
   100.4925        6.5056237E-18
   100.6540        6.5049062E-18
   100.8155        6.5044098E-18
   100.9770        6.5045786E-18
   101.1385        6.5055456E-18
   101.3000        6.5069811E-18
   101.4615        6.5082029E-18
   101.6230        6.5085668E-18
   101.7845        6.5079369E-18
   101.9460        6.5068513E-18
   102.1075        6.5061821E-18
   102.2690        6.5064732E-18
   102.4305        6.5074803E-18
   102.5920        6.5083245E-18
   102.7535        6.5082004E-18
   102.9150        6.5070465E-18
   103.0765        6.5056093E-18
   103.2380        6.5048003E-18
   103.3995        6.5048925E-18
   103.5610        6.5052776E-18
   103.7225        6.5050265E-18
   103.8840        6.5037688E-18
   104.0455        6.5020925E-18
   104.2070        6.5010780E-18
   104.3685        6.5013617E-18
   104.5300        6.5025615E-18
   104.6915        6.5035645E-18
   104.8530        6.5034354E-18
   105.0145        6.5021368E-18
   105.1760        6.5004650E-18
   105.3375        6.4993157E-18
   105.4990        6.4989686E-18
   105.6605        6.4990166E-18
   105.8220        6.4989074E-18
   105.9835        6.4985182E-18
   106.1450        6.4981886E-18
   106.3065        6.4982428E-18
   106.4680        6.4985691E-18
   106.6295        6.4987631E-18
   106.7910        6.4986998E-18
   106.9525        6.4988988E-18
   107.1140        6.5001664E-18
   107.2755        6.5027414E-18
   107.4370        6.5057763E-18
   107.5985        6.5078079E-18
   107.7600        6.5079704E-18
   107.9215        6.5069013E-18
   108.0830        6.5064215E-18
   108.2445        6.5080701E-18
   108.4060        6.5116824E-18
   108.5675        6.5152744E-18
   108.7290        6.5164809E-18
   108.8905        6.5144440E-18
   109.0520        6.5105537E-18
   109.2135        6.5073736E-18
   109.3750        6.5065981E-18
   109.5365        6.5077541E-18
   109.6980        6.5087116E-18
   109.8595        6.5075411E-18
   110.0210        6.5041141E-18
   110.1825        6.5001205E-18
   110.3440        6.4975806E-18
   110.5055        6.4972212E-18
   110.6670        6.4980947E-18
   110.8285        6.4986518E-18
   110.9900        6.4981944E-18
   111.1515        6.4973743E-18
   111.3130        6.4973887E-18
   111.4745        6.4987474E-18
   111.6360        6.5008174E-18
   111.7975        6.5025450E-18
   111.9590        6.5035487E-18
   112.1205        6.5044384E-18
   112.2820        6.5060191E-18
   112.4435        6.5081983E-18
   112.6050        6.5097940E-18
   112.7665        6.5095686E-18
   112.9280        6.5075635E-18
   113.0895        6.5053859E-18
   113.2510        6.5049872E-18
   113.4125        6.5069319E-18
   113.5740        6.5097352E-18
   113.7355        6.5110054E-18
   113.8970        6.5095016E-18
   114.0585        6.5063095E-18
   114.2200        6.5040074E-18
   114.3815        6.5044781E-18
   114.5430        6.5072429E-18
   114.7045        6.5098151E-18
   114.8660        6.5097993E-18
   115.0275        6.5069270E-18
   115.1890        6.5032510E-18
   115.3505        6.5013708E-18
   115.5120        6.5022650E-18
   115.6735        6.5046071E-18
   115.8350        6.5060803E-18
   115.9965        6.5054244E-18
   116.1580        6.5033779E-18
   116.3195        6.5017596E-18
   116.4810        6.5016557E-18
   116.6425        6.5024403E-18
   116.8040        6.5025094E-18
   116.9655        6.5009605E-18
   117.1270        6.4985790E-18
   117.2885        6.4971621E-18
   117.4500        6.4978185E-18
   117.6115        6.4998777E-18
   117.7730        6.5014618E-18
   117.9345        6.5012107E-18
   118.0960        6.4995630E-18
   118.2575        6.4983876E-18
   118.4190        6.4992929E-18
   118.5805        6.5021566E-18
   118.7420        6.5052126E-18