  -27.90000       -2.2415681E-18
  -27.73850       -2.2455303E-18
  -27.57700       -2.2516024E-18
  -27.41550       -2.2571767E-18
  -27.25400       -2.2603134E-18
  -27.09250       -2.2607717E-18
  -26.93100       -2.2600783E-18
  -26.76950       -2.2605814E-18
  -26.60800       -2.2640231E-18
  -26.44650       -2.2704499E-18
  -26.28500       -2.2781081E-18
  -26.12350       -2.2844059E-18
  -25.96200       -2.2874028E-18
  -25.80050       -2.2869588E-18
  -25.63900       -2.2848466E-18
  -25.47750       -2.2837445E-18
  -25.31600       -2.2856872E-18
  -25.15450       -2.2908856E-18
  -24.99300       -2.2976228E-18
  -24.83150       -2.3032836E-18
  -24.67000       -2.3059126E-18
  -24.50850       -2.3053575E-18
  -24.34700       -2.3033320E-18
  -24.18550       -2.3023756E-18
  -24.02400       -2.3043465E-18
  -23.86250       -2.3093402E-18
  -23.70100       -2.3156630E-18
  -23.53950       -2.3208513E-18
  -23.37800       -2.3231155E-18
  -23.21650       -2.3223669E-18
  -23.05500       -2.3202445E-18
  -22.89350       -2.3191466E-18
  -22.73200       -2.3208422E-18
  -22.57050       -2.3254562E-18
  -22.40900       -2.3314036E-18
  -22.24750       -2.3362993E-18
  -22.08600       -2.3383287E-18
  -21.92450       -2.3372991E-18
  -21.76300       -2.3347646E-18
  -21.60150       -2.3331421E-18
  -21.44000       -2.3343095E-18
  -21.27850       -2.3384977E-18
  -21.11700       -2.3441451E-18
  -20.95550       -2.3488164E-18
  -20.79400       -2.3506709E-18
  -20.63250       -2.3495935E-18
  -20.47100       -2.3472931E-18
  -20.30950       -2.3462742E-18
  -20.14800       -2.3482954E-18
  -19.98650       -2.3532538E-18
  -19.82500       -2.3592020E-18
  -19.66350       -2.3635098E-18
  -19.50200       -2.3644552E-18
  -19.34050       -2.3622725E-18
  -19.17900       -2.3590025E-18
  -19.01750       -2.3572503E-18
  -18.85600       -2.3586220E-18
  -18.69450       -2.3627970E-18
  -18.53300       -2.3677803E-18
  -18.37150       -2.3711560E-18
  -18.21000       -2.3715636E-18
  -18.04850       -2.3695075E-18
  -17.88700       -2.3670443E-18
  -17.72550       -2.3665517E-18
  -17.56400       -2.3693185E-18
  -17.40250       -2.3747721E-18
  -17.24100       -2.3807821E-18
  -17.07950       -2.3848562E-18
  -16.91800       -2.3855510E-18
  -16.75650       -2.3832993E-18
  -16.59500       -2.3801715E-18
  -16.43350       -2.3786981E-18
  -16.27200       -2.3803967E-18
  -16.11050       -2.3848701E-18
  -15.94900       -2.3900199E-18
  -15.78750       -2.3932970E-18
  -15.62600       -2.3932722E-18
  -15.46450       -2.3905778E-18
  -15.30300       -2.3876053E-18
  -15.14150       -2.3870950E-18
  -14.98000       -2.3904502E-18
  -14.81850       -2.3968185E-18
  -14.65700       -2.4035302E-18
  -14.49550       -2.4076668E-18
  -14.33400       -2.4078039E-18
  -14.17250       -2.4048504E-18
  -14.01100       -2.4014708E-18
  -13.84950       -2.4004479E-18
  -13.68800       -2.4030139E-18
  -13.52650       -2.4081593E-18
  -13.36500       -2.4133139E-18
  -13.20350       -2.4159375E-18
  -13.04200       -2.4150373E-18
  -12.88050       -2.4117218E-18
  -12.71900       -2.4085045E-18
  -12.55750       -2.4078210E-18
  -12.39600       -2.4106380E-18
  -12.23450       -2.4159514E-18
  -12.07300       -2.4214135E-18
  -11.91150       -2.4246967E-18
  -11.75000       -2.4248113E-18
  -11.58850       -2.4226445E-18
  -11.42700       -2.4204347E-18
  -11.26550       -2.4204912E-18
  -11.10400       -2.4238646E-18
  -10.94250       -2.4297277E-18
  -10.78100       -2.4358277E-18
  -10.61950       -2.4397775E-18
  -10.45800       -2.4404349E-18
  -10.29650       -2.4385535E-18
  -10.13500       -2.4363025E-18
  -9.973500       -2.4359375E-18
  -9.812000       -2.4384205E-18
  -9.650500       -2.4428434E-18
  -9.489000       -2.4469924E-18
  -9.327500       -2.4487143E-18
  -9.166000       -2.4472279E-18
  -9.004500       -2.4435825E-18
  -8.843000       -2.4400052E-18
  -8.681500       -2.4385706E-18
  -8.520000       -2.4400459E-18
  -8.358500       -2.4435662E-18
  -8.197000       -2.4472866E-18
  -8.035500       -2.4495246E-18
  -7.874000       -2.4496921E-18
  -7.712500       -2.4485229E-18
  -7.551000       -2.4475263E-18
  -7.389500       -2.4480586E-18
  -7.228000       -2.4505521E-18
  -7.066500       -2.4543098E-18
  -6.905000       -2.4579271E-18
  -6.743500       -2.4600753E-18
  -6.582000       -2.4602153E-18
  -6.420500       -2.4588909E-18
  -6.259000       -2.4574500E-18
  -6.097500       -2.4573394E-18
  -5.936000       -2.4593227E-18
  -5.774500       -2.4630498E-18
  -5.613000       -2.4672368E-18
  -5.451500       -2.4703939E-18
  -5.290000       -2.4716868E-18
  -5.128500       -2.4714163E-18
  -4.967000       -2.4708156E-18
  -4.805500       -2.4712740E-18
  -4.644000       -2.4734719E-18
  -4.482500       -2.4769622E-18
  -4.321000       -2.4804624E-18
  -4.159500       -2.4826610E-18
  -3.998000       -2.4830301E-18
  -3.836500       -2.4821349E-18
  -3.675000       -2.4812658E-18
  -3.513500       -2.4816568E-18
  -3.352000       -2.4838031E-18
  -3.190500       -2.4872529E-18
  -3.029000       -2.4909425E-18
  -2.867500       -2.4938058E-18
  -2.706000       -2.4953067E-18
  -2.544500       -2.4956391E-18
  -2.383000       -2.4955588E-18
  -2.221500       -2.4959726E-18
  -2.060000       -2.4974831E-18
  -1.898500       -2.5000926E-18
  -1.737000       -2.5031780E-18
  -1.575500       -2.5057749E-18
  -1.414000       -2.5070633E-18
  -1.252500       -2.5068438E-18
  -1.091000       -2.5057400E-18
 -0.9295000       -2.5049465E-18
 -0.7680000       -2.5055934E-18
 -0.6065000       -2.5080478E-18
 -0.4450000       -2.5116039E-18
 -0.2835000       -2.5148108E-18
 -0.1220000       -2.5162991E-18
  3.9500002E-02   -2.5156029E-18
  0.2010000       -2.5134644E-18
  0.3625000       -2.5114132E-18
  0.5240000       -2.5108656E-18
  0.6855000       -2.5123030E-18
  0.8470000       -2.5150176E-18
   1.008500       -2.5175749E-18
   1.170000       -2.5186885E-18
   1.331500       -2.5179831E-18
   1.493000       -2.5161883E-18
   1.654500       -2.5146959E-18
   1.816000       -2.5147608E-18
   1.977500       -2.5167963E-18
   2.139000       -2.5201304E-18
   2.300500       -2.5233182E-18
   2.462000       -2.5248553E-18
   2.623500       -2.5239634E-18
   2.785000       -2.5210521E-18
   2.946500       -2.5175957E-18
   3.108000       -2.5154205E-18
   3.269500       -2.5157365E-18
   3.431000       -2.5184378E-18
   3.592500       -2.5221088E-18
   3.754000       -2.5248166E-18
   3.915500       -2.5252825E-18
   4.077000       -2.5237504E-18
   4.238500       -2.5219610E-18
   4.400000       -2.5221519E-18
   4.561500       -2.5256397E-18
   4.723000       -2.5318760E-18
   4.884500       -2.5386324E-18
   5.046000       -2.5432683E-18
   5.207500       -2.5443116E-18
   5.369000       -2.5423779E-18
   5.530500       -2.5398248E-18
   5.692000       -2.5393603E-18
   5.853500       -2.5424285E-18
   6.015000       -2.5483540E-18
   6.176500       -2.5547618E-18
   6.338000       -2.5590001E-18
   6.499500       -2.5597259E-18
   6.661000       -2.5576857E-18
   6.822500       -2.5552645E-18
   6.984000       -2.5550705E-18
   7.145500       -2.5583933E-18
   7.307000       -2.5644040E-18
   7.468500       -2.5705589E-18
   7.630000       -2.5740090E-18
   7.791500       -2.5732507E-18
   7.953000       -2.5690811E-18
   8.114500       -2.5642638E-18
   8.276000       -2.5620083E-18
   8.437500       -2.5641098E-18
   8.599000       -2.5698305E-18
   8.760500       -2.5762416E-18
   8.922000       -2.5798915E-18
   9.083500       -2.5788704E-18
   9.245000       -2.5740208E-18
   9.406500       -2.5685197E-18
   9.568000       -2.5659980E-18
   9.729500       -2.5683073E-18
   9.891000       -2.5743147E-18
   10.05250       -2.5805353E-18
   10.21400       -2.5832439E-18
   10.37550       -2.5807839E-18
   10.53700       -2.5746412E-18
   10.69850       -2.5686177E-18
   10.86000       -2.5666025E-18
   11.02150       -2.5702723E-18
   11.18300       -2.5780885E-18
   11.34450       -2.5861839E-18
   11.50600       -2.5906081E-18
   11.66750       -2.5895956E-18
   11.82900       -2.5845382E-18
   11.99050       -2.5791059E-18
   12.15200       -2.5770696E-18
   12.31350       -2.5800944E-18
   12.47500       -2.5867789E-18
   12.63650       -2.5934656E-18
   12.79800       -2.5963843E-18
   12.95950       -2.5939112E-18
   13.12100       -2.5876416E-18
   13.28250       -2.5815889E-18
   13.44400       -2.5799112E-18
   13.60550       -2.5844466E-18
   13.76700       -2.5935415E-18
   13.92850       -2.6029093E-18
   14.09000       -2.6080848E-18
   14.25150       -2.6070495E-18
   14.41300       -2.6014532E-18
   14.57450       -2.5956431E-18
   14.73600       -2.5940307E-18
   14.89750       -2.5983648E-18
   15.05900       -2.6066178E-18
   15.22050       -2.6142162E-18
   15.38200       -2.6168845E-18
   15.54350       -2.6133316E-18
   15.70500       -2.6060972E-18
   15.86650       -2.6000375E-18
   16.02800       -2.5993791E-18
   16.18950       -2.6051545E-18
   16.35100       -2.6145711E-18
   16.51250       -2.6226882E-18
   16.67400       -2.6253774E-18
   16.83550       -2.6217777E-18
   16.99700       -2.6147779E-18
   17.15850       -2.6092554E-18
   17.32000       -2.6091665E-18
   17.48150       -2.6152124E-18
   17.64300       -2.6244431E-18
   17.80450       -2.6320012E-18
   17.96600       -2.6339952E-18
   18.12750       -2.6298322E-18
   18.28900       -2.6226508E-18
   18.45050       -2.6175283E-18
   18.61200       -2.6184599E-18
   18.77350       -2.6258739E-18
   18.93500       -2.6362085E-18
   19.09650       -2.6438928E-18
   19.25800       -2.6446253E-18
   19.41950       -2.6380177E-18
   19.58100       -2.6279776E-18
   19.74250       -2.6205049E-18
   19.90400       -2.6201388E-18
   20.06550       -2.6271765E-18
   20.22700       -2.6374178E-18
   20.38850       -2.6446896E-18
   20.55000       -2.6446375E-18
   20.71150       -2.6374619E-18
   20.87300       -2.6278666E-18
   21.03450       -2.6222295E-18
   21.19600       -2.6247082E-18
   21.35750       -2.6346486E-18
   21.51900       -2.6468669E-18
   21.68050       -2.6546664E-18
   21.84200       -2.6537939E-18
   22.00350       -2.6449896E-18
   22.16500       -2.6336000E-18
   22.32650       -2.6264897E-18
   22.48800       -2.6280645E-18
   22.64950       -2.6377441E-18
   22.81100       -2.6503309E-18
   22.97250       -2.6590389E-18
   23.13400       -2.6594392E-18
   23.29550       -2.6520678E-18
   23.45700       -2.6421642E-18
   23.61850       -2.6366295E-18
   23.78000       -2.6399353E-18
   23.94150       -2.6513701E-18
   24.10300       -2.6653099E-18
   24.26450       -2.6744311E-18
   24.42600       -2.6740197E-18
   24.58750       -2.6648300E-18
   24.74900       -2.6527556E-18
   24.91050       -2.6454427E-18
   25.07200       -2.6477843E-18
   25.23350       -2.6589857E-18
   25.39500       -2.6729975E-18
   25.55650       -2.6821199E-18
   25.71800       -2.6816170E-18
   25.87950       -2.6725426E-18
   26.04100       -2.6610704E-18
   26.20250       -2.6547564E-18
   26.36400       -2.6580107E-18
   26.52550       -2.6694829E-18
   26.68700       -2.6828908E-18
   26.84850       -2.6907790E-18
   27.01000       -2.6889499E-18
   27.17150       -2.6789444E-18
   27.33300       -2.6671074E-18
   27.49450       -2.6608264E-18
   27.65600       -2.6641941E-18
   27.81750       -2.6756454E-18
   27.97900       -2.6889197E-18
   28.14050       -2.6967385E-18
   28.30200       -2.6950522E-18
   28.46350       -2.6853916E-18
   28.62500       -2.6739627E-18
   28.78650       -2.6679834E-18
   28.94800       -2.6713943E-18
   29.10950       -2.6824874E-18
   29.27100       -2.6948943E-18
   29.43250       -2.7013835E-18
   29.59400       -2.6982086E-18
   29.75550       -2.6874219E-18
   29.91700       -2.6757312E-18
   30.07850       -2.6705307E-18
   30.24000       -2.6754423E-18
   30.40150       -2.6880448E-18
   30.56300       -2.7012367E-18
   30.72450       -2.7074695E-18
   30.88600       -2.7033154E-18
   31.04750       -2.6915781E-18
   31.20900       -2.6796305E-18
   31.37050       -2.6749857E-18
   31.53200       -2.6807751E-18
   31.69350       -2.6938655E-18
   31.85500       -2.7067507E-18
   32.01650       -2.7120918E-18
   32.17800       -2.7071798E-18
   32.33950       -2.6956164E-18
   32.50100       -2.6851772E-18
   32.66250       -2.6831328E-18
   32.82400       -2.6918473E-18
   32.98550       -2.7072962E-18
   33.14700       -2.7213808E-18
   33.30850       -2.7266694E-18
   33.47000       -2.7207685E-18
   33.63150       -2.7077621E-18
   33.79300       -2.6958327E-18
   33.95450       -2.6924396E-18
   34.11600       -2.6998580E-18
   34.27750       -2.7137602E-18
   34.43900       -2.7257276E-18
   34.60050       -2.7282633E-18
   34.76200       -2.7193482E-18
   34.92350       -2.7038090E-18
   35.08500       -2.6906217E-18
   35.24650       -2.6876558E-18
   35.40800       -2.6969459E-18
   35.56950       -2.7133474E-18
   35.73100       -2.7274897E-18
   35.89250       -2.7313711E-18
   36.05400       -2.7232399E-18
   36.21550       -2.7087661E-18
   36.37700       -2.6977067E-18
   36.53850       -2.6980177E-18
   36.70000       -2.7109649E-18
   36.86150       -2.7302231E-18
   37.02300       -2.7455640E-18
   37.18450       -2.7489598E-18
   37.34600       -2.7394251E-18
   37.50750       -2.7236533E-18
   37.66900       -2.7120186E-18
   37.83050       -2.7123455E-18
   37.99200       -2.7252038E-18
   38.15350       -2.7435563E-18
   38.31500       -2.7569479E-18
   38.47650       -2.7577397E-18
   38.63800       -2.7456800E-18
   38.79950       -2.7281223E-18
   38.96100       -2.7157365E-18
   39.12250       -2.7162171E-18
   39.28400       -2.7296687E-18
   39.44550       -2.7484397E-18
   39.60700       -2.7615609E-18
   39.76850       -2.7612352E-18
   39.93000       -2.7475544E-18
   40.09150       -2.7286002E-18
   40.25300       -2.7157636E-18
   40.41450       -2.7169645E-18
   40.57600       -2.7317892E-18
   40.73750       -2.7515417E-18
   40.89900       -2.7643330E-18
   41.06050       -2.7622507E-18
   41.22200       -2.7462624E-18
   41.38350       -2.7257824E-18
   41.54500       -2.7130554E-18
   41.70650       -2.7157282E-18
   41.86800       -2.7321550E-18
   42.02950       -2.7523304E-18
   42.19100       -2.7639316E-18
   42.35250       -2.7597889E-18
   42.51400       -2.7422468E-18
   42.67550       -2.7217716E-18
   42.83700       -2.7106607E-18
   42.99850       -2.7156927E-18
   43.16000       -2.7341336E-18
   43.32150       -2.7554451E-18
   43.48300       -2.7675852E-18
   43.64450       -2.7641378E-18
   43.80600       -2.7480725E-18
   43.96750       -2.7299800E-18
   44.12900       -2.7218413E-18
   44.29050       -2.7299651E-18
   44.45200       -2.7512073E-18
   44.61350       -2.7747211E-18
   44.77500       -2.7882770E-18
   44.93650       -2.7855016E-18
   45.09800       -2.7697529E-18
   45.25950       -2.7522497E-18
   45.42100       -2.7454255E-18
   45.58250       -2.7553754E-18
   45.74400       -2.7779622E-18
   45.90550       -2.8010645E-18
   46.06700       -2.8117681E-18
   46.22850       -2.8042022E-18
   46.39000       -2.7831821E-18
   46.55150       -2.7613144E-18
   46.71300       -2.7512931E-18
   46.87450       -2.7581388E-18
   47.03600       -2.7762144E-18
   47.19750       -2.7928415E-18
   47.35900       -2.7962435E-18
   47.52050       -2.7828537E-18
   47.68200       -2.7595159E-18
   47.84350       -2.7392917E-18
   48.00500       -2.7335544E-18
   48.16650       -2.7452226E-18
   48.32800       -2.7671714E-18
   48.48950       -2.7866216E-18
   48.65100       -2.7927576E-18
   48.81250       -2.7830173E-18
   48.97400       -2.7644190E-18
   49.13550       -2.7492686E-18
   49.29700       -2.7477974E-18
   49.45850       -2.7620464E-18
   49.62000       -2.7845557E-18
   49.78150       -2.8026840E-18
   49.94300       -2.8061110E-18
   50.10450       -2.7931217E-18
   50.26600       -2.7718564E-18
   50.42750       -2.7556031E-18
   50.58900       -2.7548034E-18
   50.75050       -2.7705664E-18
   50.91200       -2.7937800E-18
   51.07350       -2.8105608E-18
   51.23500       -2.8108280E-18
   51.39650       -2.7946680E-18
   51.55800       -2.7724154E-18
   51.71950       -2.7582726E-18
   51.88100       -2.7614469E-18
   52.04250       -2.7804055E-18
   52.20400       -2.8038600E-18
   52.36550       -2.8178261E-18
   52.52700       -2.8142552E-18
   52.68850       -2.7958614E-18
   52.85000       -2.7742709E-18
   53.01150       -2.7627977E-18
   53.17300       -2.7684033E-18
   53.33450       -2.7876663E-18
   53.49600       -2.8090202E-18
   53.65750       -2.8197160E-18
   53.81900       -2.8133136E-18
   53.98050       -2.7933759E-18
   54.14200       -2.7713547E-18
   54.30350       -2.7599586E-18
   54.46500       -2.7658043E-18
   54.62650       -2.7855367E-18
   54.78800       -2.8076921E-18
   54.94950       -2.8193684E-18
   55.11100       -2.8139138E-18
   55.27250       -2.7950952E-18
   55.43400       -2.7750623E-18
   55.59550       -2.7670864E-18
   55.75700       -2.7773470E-18
   55.91850       -2.8008561E-18
   56.08000       -2.8242568E-18
   56.24150       -2.8339592E-18
   56.40300       -2.8245978E-18
   56.56450       -2.8024476E-18
   56.72600       -2.7815689E-18
   56.88750       -2.7750983E-18
   57.04900       -2.7872173E-18
   57.21050       -2.8108307E-18
   57.37200       -2.8322468E-18
   57.53350       -2.8397212E-18
   57.69500       -2.8304487E-18
   57.85650       -2.8118303E-18
   58.01800       -2.7965798E-18
   58.17950       -2.7949364E-18
   58.34100       -2.8087269E-18
   58.50250       -2.8305775E-18
   58.66400       -2.8484132E-18
   58.82550       -2.8524351E-18
   58.98700       -2.8405990E-18
   59.14850       -2.8196461E-18
   59.31000       -2.8012331E-18
   59.47150       -2.7953345E-18
   59.63300       -2.8045559E-18
   59.79450       -2.8225888E-18
   59.95600       -2.8378360E-18
   60.11750       -2.8402944E-18
   60.27900       -2.8277126E-18
   60.44050       -2.8072179E-18
   60.60200       -2.7911599E-18
   60.76350       -2.7895241E-18
   60.92500       -2.8036046E-18
   61.08650       -2.8250426E-18
   61.24800       -2.8409814E-18
   61.40950       -2.8421039E-18
   61.57100       -2.8283991E-18
   61.73250       -2.8089523E-18
   61.89400       -2.7960210E-18
   62.05550       -2.7973313E-18
   62.21700       -2.8115395E-18
   62.37850       -2.8295367E-18
   62.54000       -2.8404092E-18
   62.70150       -2.8380728E-18
   62.86300       -2.8245465E-18
   63.02450       -2.8082418E-18
   63.18600       -2.7987503E-18
   63.34750       -2.8014101E-18
   63.50900       -2.8146342E-18
   63.67050       -2.8311667E-18
   63.83200       -2.8422823E-18
   63.99350       -2.8425960E-18
   64.15500       -2.8329972E-18
   64.31650       -2.8202016E-18
   64.47800       -2.8130777E-18
   64.63950       -2.8175850E-18
   64.80100       -2.8331027E-18
   64.96250       -2.8524258E-18
   65.12400       -2.8657614E-18
   65.28550       -2.8665661E-18
   65.44700       -2.8556688E-18
   65.60850       -2.8408912E-18
   65.77000       -2.8321760E-18
   65.93150       -2.8352459E-18
   66.09300       -2.8479421E-18
   66.25450       -2.8617027E-18
   66.41600       -2.8671904E-18
   66.57750       -2.8603068E-18
   66.73900       -2.8446417E-18
   66.90050       -2.8289471E-18
   67.06200       -2.8215426E-18
   67.22350       -2.8254130E-18
   67.38500       -2.8369514E-18
   67.54650       -2.8486835E-18
   67.70800       -2.8538531E-18
   67.86950       -2.8500003E-18
   68.03100       -2.8397576E-18
   68.19250       -2.8289362E-18
   68.35400       -2.8233058E-18
   68.51550       -2.8257218E-18
   68.67700       -2.8347995E-18
   68.83850       -2.8456002E-18
   69.00000       -2.8520869E-18
   69.16150       -2.8503703E-18
   69.32300       -2.8411520E-18
   69.48450       -2.8298231E-18
   69.64600       -2.8237154E-18
   69.80750       -2.8277678E-18
   69.96900       -2.8412128E-18
   70.13050       -2.8576313E-18
   70.29200       -2.8687070E-18
   70.45350       -2.8694312E-18
   70.61500       -2.8613207E-18
   70.77650       -2.8513923E-18
   70.93800       -2.8475196E-18
   71.09950       -2.8533115E-18
   71.26100       -2.8659198E-18
   71.42250       -2.8780959E-18
   71.58400       -2.8829037E-18
   71.74550       -2.8778929E-18
   71.90700       -2.8662061E-18
   72.06850       -2.8543149E-18
   72.23000       -2.8481774E-18
   72.39150       -2.8501716E-18
   72.55300       -2.8582664E-18
   72.71450       -2.8674162E-18
   72.87600       -2.8721944E-18
   73.03750       -2.8694364E-18
   73.19900       -2.8598647E-18
   73.36050       -2.8479766E-18
   73.52200       -2.8399937E-18
   73.68350       -2.8405395E-18
   73.84500       -2.8496997E-18
   74.00650       -2.8624068E-18
   74.16800       -2.8710438E-18
   74.32950       -2.8700934E-18
   74.49100       -2.8599536E-18
   74.65250       -2.8471519E-18
   74.81400       -2.8404096E-18
   74.97550       -2.8449456E-18
   75.13700       -2.8588673E-18
   75.29850       -2.8742185E-18
   75.46000       -2.8820972E-18
   75.62150       -2.8783782E-18
   75.78300       -2.8662170E-18
   75.94450       -2.8538031E-18
   76.10600       -2.8490675E-18
   76.26750       -2.8549303E-18
   76.42900       -2.8679764E-18
   76.59050       -2.8809809E-18
   76.75200       -2.8873229E-18
   76.91350       -2.8845591E-18
   77.07500       -2.8753669E-18
   77.23650       -2.8657648E-18
   77.39800       -2.8618189E-18
   77.55950       -2.8664850E-18
   77.72100       -2.8779762E-18
   77.88250       -2.8904391E-18
   78.04400       -2.8968361E-18
   78.20550       -2.8928413E-18
   78.36700       -2.8796936E-18
   78.52850       -2.8640752E-18
   78.69000       -2.8545540E-18
   78.85150       -2.8563818E-18
   79.01300       -2.8679253E-18
   79.17450       -2.8813439E-18
   79.33600       -2.8874768E-18
   79.49750       -2.8818979E-18
   79.65900       -2.8680312E-18
   79.82050       -2.8550588E-18
   79.98200       -2.8519206E-18
   80.14350       -2.8614442E-18
   80.30500       -2.8785540E-18
   80.46650       -2.8936647E-18
   80.62800       -2.8988234E-18
   80.78950       -2.8924907E-18
   80.95100       -2.8800361E-18
   81.11250       -2.8700324E-18
   81.27400       -2.8690123E-18
   81.43550       -2.8779452E-18
   81.59700       -2.8921876E-18
   81.75850       -2.9044671E-18
   81.92000       -2.9089436E-18
   82.08150       -2.9041989E-18
   82.24300       -2.8938364E-18
   82.40450       -2.8845345E-18
   82.56600       -2.8824879E-18
   82.72750       -2.8899064E-18
   82.88900       -2.9034333E-18
   83.05050       -2.9156324E-18
   83.21200       -2.9191117E-18
   83.37350       -2.9111038E-18
   83.53500       -2.8956053E-18
   83.69650       -2.8813513E-18
   83.85800       -2.8765150E-18
   84.01950       -2.8834131E-18
   84.18100       -2.8968068E-18
   84.34250       -2.9071591E-18
   84.50400       -2.9068177E-18
   84.66550       -2.8950120E-18
   84.82700       -2.8783001E-18
   84.98850       -2.8662226E-18
   85.15000       -2.8651750E-18
   85.31150       -2.8745755E-18
   85.47300       -2.8876528E-18
   85.63450       -2.8960021E-18
   85.79600       -2.8947467E-18
   85.95750       -2.8851133E-18
   86.11900       -2.8732148E-18
   86.28050       -2.8662276E-18
   86.44200       -2.8684190E-18
   86.60350       -2.8791016E-18
   86.76500       -2.8932687E-18
   86.92650       -2.9042942E-18
   87.08800       -2.9073188E-18
   87.24950       -2.9017634E-18
   87.41100       -2.8917486E-18
   87.57250       -2.8840256E-18
   87.73400       -2.8842454E-18
   87.89550       -2.8935034E-18
   88.05700       -2.9073167E-18
   88.21850       -2.9180227E-18
   88.38000       -2.9194419E-18
   88.54150       -2.9109625E-18
   88.70300       -2.8982386E-18
   88.86450       -2.8898041E-18
   89.02600       -2.8916592E-18
   89.18750       -2.9033980E-18
   89.34900       -2.9184870E-18
   89.51050       -2.9284878E-18
   89.67200       -2.9283585E-18
   89.83350       -2.9193516E-18
   89.99500       -2.9078118E-18
   90.15650       -2.9009704E-18
   90.31800       -2.9026051E-18
   90.47950       -2.9111871E-18
   90.64100       -2.9212510E-18
   90.80250       -2.9267751E-18
   90.96400       -2.9244499E-18
   91.12550       -2.9152130E-18
   91.28700       -2.9035677E-18
   91.44850       -2.8952502E-18
   91.61000       -2.8943730E-18
   91.77150       -2.9012826E-18
   91.93300       -2.9121731E-18
   92.09450       -2.9208726E-18
   92.25600       -2.9221725E-18
   92.41750       -2.9150109E-18
   92.57900       -2.9034860E-18
   92.74050       -2.8947066E-18
   92.90200       -2.8944758E-18
   93.06350       -2.9034546E-18
   93.22500       -2.9164434E-18
   93.38650       -2.9255015E-18
   93.54800       -2.9249996E-18
   93.70950       -2.9152897E-18
   93.87100       -2.9025129E-18
   94.03250       -2.8946660E-18
   94.19400       -2.8965584E-18
   94.35550       -2.9069443E-18
   94.51700       -2.9195507E-18
   94.67850       -2.9271122E-18
   94.84000       -2.9257140E-18
   95.00150       -2.9168367E-18
   95.16300       -2.9061632E-18
   95.32450       -2.9001684E-18
   95.48600       -2.9025631E-18
   95.64750       -2.9124310E-18
   95.80900       -2.9248422E-18
   95.97050       -2.9334968E-18
   96.13200       -2.9340919E-18
   96.29350       -2.9267457E-18
   96.45500       -2.9161518E-18
   96.61650       -2.9091547E-18
   96.77800       -2.9108198E-18
   96.93950       -2.9211776E-18
   97.10100       -2.9347578E-18
   97.26250       -2.9435751E-18
   97.42400       -2.9420219E-18
   97.58550       -2.9306232E-18
   97.74700       -2.9160449E-18
   97.90850       -2.9070783E-18
   98.07000       -2.9090600E-18
   98.23150       -2.9203971E-18
   98.39300       -2.9335520E-18
   98.55450       -2.9398913E-18
   98.71600       -2.9352055E-18
   98.87750       -2.9223247E-18
   99.03900       -2.9092300E-18
   99.20050       -2.9040125E-18
   99.36200       -2.9099529E-18
   99.52350       -2.9237081E-18
   99.68500       -2.9375039E-18
   99.84650       -2.9437811E-18
   100.0080       -2.9394785E-18
   100.1695       -2.9275851E-18
   100.3310       -2.9152943E-18
   100.4925       -2.9099108E-18
   100.6540       -2.9147607E-18
   100.8155       -2.9272865E-18
   100.9770       -2.9404011E-18
   101.1385       -2.9464920E-18
   101.3000       -2.9419464E-18
   101.4615       -2.9295640E-18
   101.6230       -2.9172063E-18
   101.7845       -2.9131990E-18
   101.9460       -2.9211112E-18
   102.1075       -2.9372106E-18
   102.2690       -2.9524307E-18
   102.4305       -2.9578645E-18
   102.5920       -2.9503950E-18
   102.7535       -2.9347890E-18
   102.9150       -2.9207778E-18
   103.0765       -2.9169416E-18
   103.2380       -2.9253433E-18
   103.3995       -2.9403678E-18
   103.5610       -2.9524200E-18
   103.7225       -2.9539908E-18
   103.8840       -2.9442019E-18
   104.0455       -2.9291067E-18
   104.2070       -2.9177954E-18
   104.3685       -2.9168876E-18
   104.5300       -2.9267311E-18
   104.6915       -2.9414036E-18
   104.8530       -2.9522752E-18
   105.0145       -2.9529572E-18
   105.1760       -2.9428472E-18
   105.3375       -2.9274077E-18
   105.4990       -2.9150827E-18
   105.6605       -2.9125389E-18
   105.8220       -2.9208266E-18
   105.9835       -2.9346571E-18
   106.1450       -2.9453885E-18
   106.3065       -2.9461659E-18
   106.4680       -2.9362298E-18
   106.6295       -2.9216470E-18
   106.7910       -2.9117740E-18
   106.9525       -2.9134670E-18
   107.1140       -2.9266548E-18
   107.2755       -2.9442065E-18
   107.4370       -2.9563053E-18
   107.5985       -2.9566032E-18
   107.7600       -2.9461857E-18
   107.9215       -2.9327858E-18
   108.0830       -2.9258057E-18
   108.2445       -2.9304238E-18
   108.4060       -2.9445568E-18
   108.5675       -2.9604503E-18
   108.7290       -2.9696334E-18
   108.8905       -2.9679766E-18
   109.0520       -2.9578161E-18
   109.2135       -2.9461361E-18
   109.3750       -2.9402216E-18
   109.5365       -2.9434527E-18
   109.6980       -2.9535745E-18
   109.8595       -2.9641963E-18
   110.0210       -2.9685130E-18
   110.1825       -2.9631715E-18
   110.3440       -2.9502155E-18
   110.5055       -2.9360646E-18
   110.6670       -2.9280041E-18
   110.8285       -2.9300485E-18
   110.9900       -2.9405073E-18
   111.1515       -2.9528315E-18
   111.3130       -2.9594655E-18
   111.4745       -2.9565058E-18
   111.6360       -2.9462308E-18
   111.7975       -2.9357380E-18
   111.9590       -2.9324012E-18
   112.1205       -2.9390463E-18
   112.2820       -2.9520488E-18
   112.4435       -2.9636498E-18
   112.6050       -2.9669684E-18
   112.7665       -2.9603677E-18
   112.9280       -2.9483407E-18
   113.0895       -2.9384698E-18
   113.2510       -2.9366169E-18
   113.4125       -2.9435135E-18
   113.5740       -2.9547489E-18
   113.7355       -2.9638262E-18
   113.8970       -2.9660918E-18
   114.0585       -2.9611467E-18
   114.2200       -2.9526057E-18
   114.3815       -2.9457351E-18
   114.5430       -2.9444989E-18
   114.7045       -2.9495431E-18
   114.8660       -2.9579547E-18
   115.0275       -2.9648074E-18
   115.1890       -2.9657562E-18
   115.3505       -2.9594835E-18
   115.5120       -2.9487190E-18
   115.6735       -2.9390664E-18
   115.8350       -2.9359901E-18
   115.9965       -2.9415124E-18
   116.1580       -2.9526777E-18
   116.3195       -2.9630296E-18
   116.4810       -2.9664699E-18
   116.6425       -2.9611581E-18
   116.8040       -2.9508210E-18
   116.9655       -2.9424411E-18
   117.1270       -2.9417374E-18
   117.2885       -2.9494227E-18
   117.4500       -2.9607367E-18
   117.6115       -2.9685432E-18
   117.7730       -2.9679058E-18
   117.9345       -2.9591435E-18
   118.0960       -2.9475092E-18
   118.2575       -2.9398762E-18
   118.4190       -2.9406434E-18
   118.5805       -2.9493375E-18
   118.7420       -2.9611354E-18