  -27.90000        8.9789074E-18
  -27.73850        9.0066742E-18
  -27.57700        9.0489986E-18
  -27.41550        9.0874633E-18
  -27.25400        9.1086432E-18
  -27.09250        9.1112894E-18
  -26.93100        9.1064272E-18
  -26.76950        9.1103613E-18
  -26.60800        9.1346928E-18
  -26.44650        9.1791521E-18
  -26.28500        9.2314117E-18
  -26.12350        9.2739900E-18
  -25.96200        9.2942510E-18
  -25.80050        9.2917058E-18
  -25.63900        9.2783675E-18
  -25.47750        9.2719287E-18
  -25.31600        9.2856913E-18
  -25.15450        9.3210401E-18
  -24.99300        9.3668047E-18
  -24.83150        9.4058567E-18
  -24.67000        9.4250977E-18
  -24.50850        9.4230281E-18
  -24.34700        9.4105195E-18
  -24.18550        9.4043661E-18
  -24.02400        9.4174281E-18
  -23.86250        9.4511258E-18
  -23.70100        9.4946727E-18
  -23.53950        9.5314517E-18
  -23.37800        9.5487612E-18
  -23.21650        9.5452234E-18
  -23.05500        9.5315046E-18
  -22.89350        9.5240045E-18
  -22.73200        9.5352128E-18
  -22.57050        9.5664257E-18
  -22.40900        9.6070427E-18
  -22.24750        9.6408074E-18
  -22.08600        9.6553071E-18
  -21.92450        9.6491652E-18
  -21.76300        9.6327614E-18
  -21.60150        9.6221073E-18
  -21.44000        9.6295172E-18
  -21.27850        9.6565272E-18
  -21.11700        9.6931894E-18
  -20.95550        9.7241062E-18
  -20.79400        9.7376066E-18
  -20.63250        9.7326559E-18
  -20.47100        9.7194326E-18
  -20.30950        9.7132271E-18
  -20.14800        9.7252882E-18
  -19.98650        9.7560113E-18
  -19.82500        9.7945216E-18
  -19.66350        9.8249320E-18
  -19.50200        9.8356060E-18
  -19.34050        9.8259751E-18
  -19.17900        9.8068838E-18
  -19.01750        9.7942511E-18
  -18.85600        9.7997948E-18
  -18.69450        9.8242802E-18
  -18.53300        9.8572607E-18
  -18.37150        9.8834666E-18
  -18.21000        9.8920280E-18
  -18.04850        9.8830688E-18
  -17.88700        9.8677262E-18
  -17.72550        9.8615621E-18
  -17.56400        9.8752048E-18
  -17.40250        9.9077849E-18
  -17.24100        9.9470818E-18
  -17.07950        9.9763979E-18
  -16.91800        9.9841982E-18
  -16.75650        9.9708839E-18
  -16.59500        9.9486832E-18
  -16.43350        9.9346426E-18
  -16.27200        9.9407721E-18
  -16.11050        9.9671186E-18
  -15.94900        1.0001873E-17
  -15.78750        1.0028524E-17
  -15.62600        1.0035854E-17
  -15.46450        1.0024877E-17
  -15.30300        1.0008500E-17
  -15.14150        1.0004019E-17
  -14.98000        1.0022768E-17
  -14.81850        1.0063053E-17
  -14.65700        1.0110627E-17
  -14.49550        1.0146561E-17
  -14.33400        1.0158002E-17
  -14.17250        1.0145520E-17
  -14.01100        1.0122724E-17
  -13.84950        1.0108302E-17
  -13.68800        1.0115105E-17
  -13.52650        1.0142653E-17
  -13.36500        1.0177480E-17
  -13.20350        1.0201151E-17
  -13.04200        1.0201306E-17
  -12.88050        1.0179243E-17
  -12.71900        1.0149579E-17
  -12.55750        1.0132048E-17
  -12.39600        1.0140191E-17
  -12.23450        1.0173458E-17
  -12.07300        1.0217410E-17
  -11.91150        1.0251978E-17
  -11.75000        1.0263071E-17
  -11.58850        1.0250802E-17
  -11.42700        1.0229496E-17
  -11.26550        1.0219403E-17
  -11.10400        1.0234835E-17
  -10.94250        1.0275637E-17
  -10.78100        1.0326997E-17
  -10.61950        1.0367785E-17
  -10.45800        1.0382649E-17
  -10.29650        1.0370819E-17
  -10.13500        1.0346462E-17
  -9.973500        1.0330329E-17
  -9.812000        1.0337528E-17
  -9.650500        1.0368583E-17
  -9.489000        1.0409036E-17
  -9.327500        1.0437909E-17
  -9.166000        1.0440109E-17
  -9.004500        1.0415528E-17
  -8.843000        1.0379483E-17
  -8.681500        1.0354149E-17
  -8.520000        1.0355929E-17
  -8.358500        1.0386105E-17
  -8.197000        1.0430215E-17
  -8.035500        1.0466540E-17
  -7.874000        1.0478736E-17
  -7.712500        1.0465256E-17
  -7.551000        1.0440045E-17
  -7.389500        1.0424115E-17
  -7.228000        1.0432961E-17
  -7.066500        1.0467221E-17
  -6.905000        1.0512110E-17
  -6.743500        1.0545996E-17
  -6.582000        1.0553114E-17
  -6.420500        1.0532946E-17
  -6.259000        1.0500735E-17
  -6.097500        1.0478799E-17
  -5.936000        1.0483695E-17
  -5.774500        1.0516754E-17
  -5.613000        1.0563512E-17
  -5.451500        1.0602355E-17
  -5.290000        1.0617283E-17
  -5.128500        1.0607243E-17
  -4.967000        1.0586556E-17
  -4.805500        1.0576196E-17
  -4.644000        1.0591099E-17
  -4.482500        1.0631056E-17
  -4.321000        1.0680588E-17
  -4.159500        1.0717937E-17
  -3.998000        1.0727863E-17
  -3.836500        1.0710688E-17
  -3.675000        1.0682181E-17
  -3.513500        1.0664348E-17
  -3.352000        1.0672507E-17
  -3.190500        1.0706337E-17
  -3.029000        1.0750177E-17
  -2.867500        1.0782398E-17
  -2.706000        1.0788284E-17
  -2.544500        1.0768766E-17
  -2.383000        1.0739809E-17
  -2.221500        1.0722825E-17
  -2.060000        1.0731802E-17
  -1.898500        1.0764835E-17
  -1.737000        1.0805149E-17
  -1.575500        1.0831033E-17
  -1.414000        1.0828809E-17
  -1.252500        1.0801128E-17
  -1.091000        1.0765591E-17
 -0.9295000        1.0744490E-17
 -0.7680000        1.0751675E-17
 -0.6065000        1.0784363E-17
 -0.4450000        1.0824758E-17
 -0.2835000        1.0850608E-17
 -0.1220000        1.0848463E-17
  3.9500002E-02    1.0821774E-17
  0.2010000        1.0788951E-17
  0.3625000        1.0772485E-17
  0.5240000        1.0785556E-17
  0.6855000        1.0824106E-17
  0.8470000        1.0869162E-17
   1.008500        1.0898115E-17
   1.170000        1.0898292E-17
   1.331500        1.0874718E-17
   1.493000        1.0847346E-17
   1.654500        1.0839282E-17
   1.816000        1.0862930E-17
   1.977500        1.0912320E-17
   2.139000        1.0966263E-17
   2.300500        1.1000551E-17
   2.462000        1.1002068E-17
   2.623500        1.0976448E-17
   2.785000        1.0944722E-17
   2.946500        1.0930887E-17
   3.108000        1.0947702E-17
   3.269500        1.0989157E-17
   3.431000        1.1034105E-17
   3.592500        1.1058980E-17
   3.754000        1.1052098E-17
   3.915500        1.1021013E-17
   4.077000        1.0988472E-17
   4.238500        1.0979231E-17
   4.400000        1.1005407E-17
   4.561500        1.1059046E-17
   4.723000        1.1116376E-17
   4.884500        1.1151409E-17
   5.046000        1.1150941E-17
   5.207500        1.1122142E-17
   5.369000        1.1088186E-17
   5.530500        1.1074435E-17
   5.692000        1.1093340E-17
   5.853500        1.1136979E-17
   6.015000        1.1181738E-17
   6.176500        1.1202409E-17
   6.338000        1.1187398E-17
   6.499500        1.1145980E-17
   6.661000        1.1103237E-17
   6.822500        1.1085536E-17
   6.984000        1.1105111E-17
   7.145500        1.1152829E-17
   7.307000        1.1203478E-17
   7.468500        1.1230482E-17
   7.630000        1.1221437E-17
   7.791500        1.1185322E-17
   7.953000        1.1147160E-17
   8.114500        1.1133248E-17
   8.276000        1.1155646E-17
   8.437500        1.1205051E-17
   8.599000        1.1256265E-17
   8.760500        1.1283068E-17
   8.922000        1.1273713E-17
   9.083500        1.1237919E-17
   9.245000        1.1201185E-17
   9.406500        1.1189773E-17
   9.568000        1.1215148E-17
   9.729500        1.1267096E-17
   9.891000        1.1319597E-17
   10.05250        1.1346058E-17
   10.21400        1.1334941E-17
   10.37550        1.1296571E-17
   10.53700        1.1257088E-17
   10.69850        1.1243110E-17
   10.86000        1.1266159E-17
   11.02150        1.1316033E-17
   11.18300        1.1367008E-17
   11.34450        1.1393163E-17
   11.50600        1.1383751E-17
   11.66750        1.1349498E-17
   11.82900        1.1316125E-17
   11.99050        1.1308972E-17
   12.15200        1.1337820E-17
   12.31350        1.1390961E-17
   12.47500        1.1442001E-17
   12.63650        1.1465376E-17
   12.79800        1.1451407E-17
   12.95950        1.1411983E-17
   13.12100        1.1373569E-17
   13.28250        1.1361659E-17
   13.44400        1.1385914E-17
   13.60550        1.1434720E-17
   13.76700        1.1482350E-17
   13.92850        1.1504419E-17
   14.09000        1.1492400E-17
   14.25150        1.1458590E-17
   14.41300        1.1428617E-17
   14.57450        1.1425991E-17
   14.73600        1.1457932E-17
   14.89750        1.1510892E-17
   15.05900        1.1558445E-17
   15.22050        1.1576872E-17
   15.38200        1.1559185E-17
   15.54350        1.1519303E-17
   15.70500        1.1483898E-17
   15.86650        1.1476745E-17
   16.02800        1.1504859E-17
   16.18950        1.1554582E-17
   16.35100        1.1599905E-17
   16.51250        1.1618042E-17
   16.67400        1.1603001E-17
   16.83550        1.1569086E-17
   16.99700        1.1542236E-17
   17.15850        1.1544331E-17
   17.32000        1.1579847E-17
   17.48150        1.1632843E-17
   17.64300        1.1676175E-17
   17.80450        1.1687506E-17
   17.96600        1.1662601E-17
   18.12750        1.1617983E-17
   18.28900        1.1581328E-17
   18.45050        1.1575234E-17
   18.61200        1.1604008E-17
   18.77350        1.1651295E-17
   18.93500        1.1689973E-17
   19.09650        1.1698444E-17
   19.25800        1.1673614E-17
   19.41950        1.1632846E-17
   19.58100        1.1603705E-17
   19.74250        1.1607562E-17
   19.90400        1.1646787E-17
   20.06550        1.1703130E-17
   20.22700        1.1748319E-17
   20.38850        1.1760686E-17
   20.55000        1.1738023E-17
   20.71150        1.1699028E-17
   20.87300        1.1672389E-17
   21.03450        1.1679842E-17
   21.19600        1.1723184E-17
   21.35750        1.1782945E-17
   21.51900        1.1829637E-17
   21.68050        1.1840992E-17
   21.84200        1.1815075E-17
   22.00350        1.1771447E-17
   22.16500        1.1739613E-17
   22.32650        1.1741516E-17
   22.48800        1.1778468E-17
   22.64950        1.1830321E-17
   22.81100        1.1867474E-17
   22.97250        1.1868609E-17
   23.13400        1.1833631E-17
   23.29550        1.1784091E-17
   23.45700        1.1750766E-17
   23.61850        1.1755701E-17
   23.78000        1.1799272E-17
   23.94150        1.1859921E-17
   24.10300        1.1906705E-17
   24.26450        1.1917304E-17
   24.42600        1.1890921E-17
   24.58750        1.1848508E-17
   24.74900        1.1820230E-17
   24.91050        1.1827560E-17
   25.07200        1.1870536E-17
   25.23350        1.1927670E-17
   25.39500        1.1968588E-17
   25.55650        1.1972023E-17
   25.71800        1.1938549E-17
   25.87950        1.1890522E-17
   26.04100        1.1859154E-17
   26.20250        1.1866262E-17
   26.36400        1.1911421E-17
   26.52550        1.1972157E-17
   26.68700        1.2017088E-17
   26.84850        1.2024297E-17
   27.01000        1.1994092E-17
   27.17150        1.1948627E-17
   27.33300        1.1918624E-17
   27.49450        1.1925094E-17
   27.65600        1.1966923E-17
   27.81750        1.2021665E-17
   27.97900        1.2059040E-17
   28.14050        1.2059051E-17
   28.30200        1.2023963E-17
   28.46350        1.1977062E-17
   28.62500        1.1948977E-17
   28.78650        1.1959680E-17
   28.94800        1.2006766E-17
   29.10950        1.2066888E-17
   29.27100        1.2109442E-17
   29.43250        1.2114426E-17
   29.59400        1.2083964E-17
   29.75550        1.2040764E-17
   29.91700        1.2014490E-17
   30.07850        1.2024131E-17
   30.24000        1.2066808E-17
   30.40150        1.2119579E-17
   30.56300        1.2153188E-17
   30.72450        1.2149587E-17
   30.88600        1.2112837E-17
   31.04750        1.2066879E-17
   31.20900        1.2041443E-17
   31.37050        1.2054449E-17
   31.53200        1.2101373E-17
   31.69350        1.2157902E-17
   31.85500        1.2194329E-17
   32.01650        1.2193095E-17
   32.17800        1.2159096E-17
   32.33950        1.2116635E-17
   32.50100        1.2094883E-17
   32.66250        1.2110523E-17
   32.82400        1.2157901E-17
   32.98550        1.2212485E-17
   33.14700        1.2245532E-17
   33.30850        1.2241184E-17
   33.47000        1.2205829E-17
   33.63150        1.2164215E-17
   33.79300        1.2144674E-17
   33.95450        1.2162214E-17
   34.11600        1.2209511E-17
   34.27750        1.2261118E-17
   34.43900        1.2288450E-17
   34.60050        1.2276714E-17
   34.76200        1.2233774E-17
   34.92350        1.2185732E-17
   35.08500        1.2161760E-17
   35.24650        1.2177140E-17
   35.40800        1.2224488E-17
   35.56950        1.2278350E-17
   35.73100        1.2310440E-17
   35.89250        1.2306515E-17
   36.05400        1.2274849E-17
   36.21550        1.2241239E-17
   36.37700        1.2233478E-17
   36.53850        1.2264493E-17
   36.70000        1.2324217E-17
   36.86150        1.2385092E-17
   37.02300        1.2418018E-17
   37.18450        1.2409325E-17
   37.34600        1.2368756E-17
   37.50750        1.2323708E-17
   37.66900        1.2303139E-17
   37.83050        1.2320619E-17
   37.99200        1.2366538E-17
   38.15350        1.2414052E-17
   38.31500        1.2435210E-17
   38.47650        1.2417697E-17
   38.63800        1.2372278E-17
   38.79950        1.2326513E-17
   38.96100        1.2308498E-17
   39.12250        1.2330208E-17
   39.28400        1.2380335E-17
   39.44550        1.2430859E-17
   39.60700        1.2453521E-17
   39.76850        1.2436490E-17
   39.93000        1.2391381E-17
   40.09150        1.2346486E-17
   40.25300        1.2330181E-17
   40.41450        1.2354298E-17
   40.57600        1.2407260E-17
   40.73750        1.2460984E-17
   40.89900        1.2487463E-17
   41.06050        1.2475234E-17
   41.22200        1.2436004E-17
   41.38350        1.2397563E-17
   41.54500        1.2387170E-17
   41.70650        1.2415272E-17
   41.86800        1.2469184E-17
   42.02950        1.2520483E-17
   42.19100        1.2541751E-17
   42.35250        1.2522777E-17
   42.51400        1.2476643E-17
   42.67550        1.2432114E-17
   42.83700        1.2416818E-17
   42.99850        1.2441140E-17
   43.16000        1.2492312E-17
   43.32150        1.2542147E-17
   43.48300        1.2563796E-17
   43.64450        1.2547590E-17
   43.80600        1.2506621E-17
   43.96750        1.2468844E-17
   44.12900        1.2460432E-17
   44.29050        1.2490296E-17
   44.45200        1.2544867E-17
   44.61350        1.2596185E-17
   44.77500        1.2618424E-17
   44.93650        1.2603095E-17
   45.09800        1.2563978E-17
   45.25950        1.2528923E-17
   45.42100        1.2523416E-17
   45.58250        1.2555570E-17
   45.74400        1.2611346E-17
   45.90550        1.2662736E-17
   46.06700        1.2684079E-17
   46.22850        1.2666933E-17
   46.39000        1.2624794E-17
   46.55150        1.2584984E-17
   46.71300        1.2572503E-17
   46.87450        1.2595369E-17
   47.03600        1.2640101E-17
   47.19750        1.2679959E-17
   47.35900        1.2691059E-17
   47.52050        1.2666798E-17
   47.68200        1.2622020E-17
   47.84350        1.2584469E-17
   48.00500        1.2578536E-17
   48.16650        1.2610930E-17
   48.32800        1.2666682E-17
   48.48950        1.2717851E-17
   48.65100        1.2739729E-17
   48.81250        1.2725020E-17
   48.97400        1.2687681E-17
   49.13550        1.2654284E-17
   49.29700        1.2648098E-17
   49.45850        1.2675305E-17
   49.62000        1.2721435E-17
   49.78150        1.2760039E-17
   49.94300        1.2768442E-17
   50.10450        1.2741305E-17
   50.26600        1.2694038E-17
   50.42750        1.2654035E-17
   50.58900        1.2644858E-17
   50.75050        1.2672562E-17
   50.91200        1.2722210E-17
   51.07350        1.2766604E-17
   51.23500        1.2782185E-17
   51.39650        1.2762810E-17
   51.55800        1.2723319E-17
   51.71950        1.2690754E-17
   51.88100        1.2688346E-17
   52.04250        1.2721695E-17
   52.20400        1.2775312E-17
   52.36550        1.2821643E-17
   52.52700        1.2837279E-17
   52.68850        1.2816792E-17
   52.85000        1.2775977E-17
   53.01150        1.2742544E-17
   53.17300        1.2739736E-17
   53.33450        1.2772514E-17
   53.49600        1.2824504E-17
   53.65750        1.2867524E-17
   53.81900        1.2878112E-17
   53.98050        1.2851358E-17
   54.14200        1.2803900E-17
   54.30350        1.2764311E-17
   54.46500        1.2756505E-17
   54.62650        1.2785855E-17
   54.78800        1.2836154E-17
   54.94950        1.2879207E-17
   55.11100        1.2891455E-17
   55.27250        1.2867912E-17
   55.43400        1.2825200E-17
   55.59550        1.2791840E-17
   55.75700        1.2791426E-17
   55.91850        1.2828531E-17
   56.08000        1.2885711E-17
   56.24150        1.2933480E-17
   56.40300        1.2947487E-17
   56.56450        1.2922852E-17
   56.72600        1.2877165E-17
   56.88750        1.2840294E-17
   57.04900        1.2836931E-17
   57.21050        1.2872110E-17
   57.37200        1.2928272E-17
   57.53350        1.2975627E-17
   57.69500        1.2989717E-17
   57.85650        1.2965829E-17
   58.01800        1.2921718E-17
   58.17950        1.2887045E-17
   58.34100        1.2885750E-17
   58.50250        1.2921765E-17
   58.66400        1.2976510E-17
   58.82550        1.3019686E-17
   58.98700        1.3027051E-17
   59.14850        1.2994763E-17
   59.31000        1.2941830E-17
   59.47150        1.2899212E-17
   59.63300        1.2891903E-17
   59.79450        1.2924480E-17
   59.95600        1.2978590E-17
   60.11750        1.3023866E-17
   60.27900        1.3035868E-17
   60.44050        1.3010505E-17
   60.60200        1.2966400E-17
   60.76350        1.2933777E-17
   60.92500        1.2936372E-17
   61.08650        1.2977084E-17
   61.24800        1.3035907E-17
   61.40950        1.3081455E-17
   61.57100        1.3089348E-17
   61.73250        1.3056588E-17
   61.89400        1.3003400E-17
   62.05550        1.2961405E-17
   62.21700        1.2955079E-17
   62.37850        1.2987445E-17
   62.54000        1.3038472E-17
   62.70150        1.3077129E-17
   62.86300        1.3079937E-17
   63.02450        1.3045059E-17
   63.18600        1.2993519E-17
   63.34750        1.2956844E-17
   63.50900        1.2958424E-17
   63.67050        1.2999625E-17
   63.83200        1.3058908E-17
   63.99350        1.3104506E-17
   64.15500        1.3113188E-17
   64.31650        1.3083985E-17
   64.47800        1.3038750E-17
   64.63950        1.3009130E-17
   64.80100        1.3017672E-17
   64.96250        1.3064266E-17
   65.12400        1.3125977E-17
   65.28550        1.3170448E-17
   65.44700        1.3174937E-17
   65.60850        1.3139738E-17
   65.77000        1.3087994E-17
   65.93150        1.3052024E-17
   66.09300        1.3054238E-17
   66.25450        1.3093966E-17
   66.41600        1.3148034E-17
   66.57750        1.3184754E-17
   66.73900        1.3182998E-17
   66.90050        1.3145047E-17
   67.06200        1.3095497E-17
   67.22350        1.3066836E-17
   67.38500        1.3080179E-17
   67.54650        1.3132577E-17
   67.70800        1.3198458E-17
   67.86950        1.3244422E-17
   68.03100        1.3248693E-17
   68.19250        1.3213719E-17
   68.35400        1.3164460E-17
   68.51550        1.3133363E-17
   68.67700        1.3140969E-17
   68.83850        1.3183664E-17
   69.00000        1.3235897E-17
   69.16150        1.3265548E-17
   69.32300        1.3253294E-17
   69.48450        1.3204428E-17
   69.64600        1.3146063E-17
   69.80750        1.3111343E-17
   69.96900        1.3120018E-17
   70.13050        1.3166910E-17
   70.29200        1.3225065E-17
   70.45350        1.3261712E-17
   70.61500        1.3257544E-17
   70.77650        1.3217954E-17
   70.93800        1.3169645E-17
   71.09950        1.3144687E-17
   71.26100        1.3161480E-17
   71.42250        1.3213856E-17
   71.58400        1.3274722E-17
   71.74550        1.3312041E-17
   71.90700        1.3307736E-17
   72.06850        1.3268357E-17
   72.23000        1.3221219E-17
   72.39150        1.3198290E-17
   72.55300        1.3217295E-17
   72.71450        1.3271170E-17
   72.87600        1.3332115E-17
   73.03750        1.3367867E-17
   73.19900        1.3360651E-17
   73.36050        1.3317593E-17
   73.52200        1.3266476E-17
   73.68350        1.3239295E-17
   73.84500        1.3253368E-17
   74.00650        1.3301163E-17
   74.16800        1.3354836E-17
   74.32950        1.3382794E-17
   74.49100        1.3368418E-17
   74.65250        1.3319908E-17
   74.81400        1.3265439E-17
   74.97550        1.3236550E-17
   75.13700        1.3249590E-17
   75.29850        1.3296169E-17
   75.46000        1.3348186E-17
   75.62150        1.3374443E-17
   75.78300        1.3359036E-17
   75.94450        1.3310777E-17
   76.10600        1.3258127E-17
   76.26750        1.3232630E-17
   76.42900        1.3250519E-17
   76.59050        1.3303210E-17
   76.75200        1.3362262E-17
   76.91350        1.3395934E-17
   77.07500        1.3387705E-17
   77.23650        1.3345897E-17
   77.39800        1.3298715E-17
   77.55950        1.3277509E-17
   77.72100        1.3298072E-17
   77.88250        1.3350996E-17
   78.04400        1.3406941E-17
   78.20550        1.3433827E-17
   78.36700        1.3415917E-17
   78.52850        1.3363453E-17
   78.69000        1.3307000E-17
   78.85150        1.3279741E-17
   79.01300        1.3298106E-17
   79.17450        1.3352241E-17
   79.33600        1.3411983E-17
   79.49750        1.3444811E-17
   79.65900        1.3435148E-17
   79.82050        1.3393543E-17
   79.98200        1.3350334E-17
   80.14350        1.3337502E-17
   80.30500        1.3369483E-17
   80.46650        1.3434259E-17
   80.62800        1.3500051E-17
   80.78950        1.3533729E-17
   80.95100        1.3520160E-17
   81.11250        1.3471153E-17
   81.27400        1.3418685E-17
   81.43550        1.3396264E-17
   81.59700        1.3419297E-17
   81.75850        1.3476010E-17
   81.92000        1.3534366E-17
   82.08150        1.3561079E-17
   82.24300        1.3541575E-17
   82.40450        1.3488997E-17
   82.56600        1.3436727E-17
   82.72750        1.3418675E-17
   82.88900        1.3448977E-17
   83.05050        1.3513263E-17
   83.21200        1.3576916E-17
   83.37350        1.3605497E-17
   83.53500        1.3585230E-17
   83.69650        1.3531201E-17
   83.85800        1.3478331E-17
   84.01950        1.3460439E-17
   84.18100        1.3489950E-17
   84.34250        1.3550377E-17
   84.50400        1.3606057E-17
   84.66550        1.3623309E-17
   84.82700        1.3590418E-17
   84.98850        1.3524620E-17
   85.15000        1.3461963E-17
   85.31150        1.3436111E-17
   85.47300        1.3458568E-17
   85.63450        1.3512037E-17
   85.79600        1.3560801E-17
   85.95750        1.3572039E-17
   86.11900        1.3535514E-17
   86.28050        1.3469987E-17
   86.44200        1.3412432E-17
   86.60350        1.3396317E-17
   86.76500        1.3431710E-17
   86.92650        1.3499081E-17
   87.08800        1.3560624E-17
   87.24950        1.3582538E-17
   87.41100        1.3555069E-17
   87.57250        1.3498291E-17
   87.73400        1.3450089E-17
   87.89550        1.3443430E-17
   88.05700        1.3486543E-17
   88.21850        1.3557880E-17
   88.38000        1.3618944E-17
   88.54150        1.3637292E-17
   88.70300        1.3605940E-17
   88.86450        1.3547576E-17
   89.02600        1.3501063E-17
   89.18750        1.3498334E-17
   89.34900        1.3545404E-17
   89.51050        1.3618779E-17
   89.67200        1.3679275E-17
   89.83350        1.3695079E-17
   89.99500        1.3660377E-17
   90.15650        1.3598649E-17
   90.31800        1.3548715E-17
   90.47950        1.3541782E-17
   90.64100        1.3583034E-17
   90.80250        1.3648616E-17
   90.96400        1.3699843E-17
   91.12550        1.3706279E-17
   91.28700        1.3664046E-17
   91.44850        1.3598460E-17
   91.61000        1.3549308E-17
   91.77150        1.3547395E-17
   91.93300        1.3596244E-17
   92.09450        1.3669869E-17
   92.25600        1.3728067E-17
   92.41750        1.3740182E-17
   92.57900        1.3703210E-17
   92.74050        1.3643438E-17
   92.90200        1.3600626E-17
   93.06350        1.3604154E-17
   93.22500        1.3655399E-17
   93.38650        1.3726827E-17
   93.54800        1.3778355E-17
   93.70950        1.3781184E-17
   93.87100        1.3734954E-17
   94.03250        1.3668017E-17
   94.19400        1.3620695E-17
   94.35550        1.3621473E-17
   94.51700        1.3670229E-17
   94.67850        1.3738426E-17
   94.84000        1.3786108E-17
   95.00150        1.3785662E-17
   95.16300        1.3738257E-17
   95.32450        1.3673218E-17
   95.48600        1.3630687E-17
   95.64750        1.3637807E-17
   95.80900        1.3692534E-17
   95.97050        1.3764736E-17
   96.13200        1.3813967E-17
   96.29350        1.3813390E-17
   96.45500        1.3765653E-17
   96.61650        1.3701208E-17
   96.77800        1.3660084E-17
   96.93950        1.3667916E-17
   97.10100        1.3720543E-17
   97.26250        1.3786369E-17
   97.42400        1.3825135E-17
   97.58550        1.3811951E-17
   97.74700        1.3752285E-17
   97.90850        1.3678979E-17
   98.07000        1.3633031E-17
   98.23150        1.3639532E-17
   98.39300        1.3693001E-17
   98.55450        1.3760839E-17
   98.71600        1.3802834E-17
   98.87750        1.3795166E-17
   99.03900        1.3744642E-17
   99.20050        1.3684676E-17
   99.36200        1.3655351E-17
   99.52350        1.3679351E-17
   99.68500        1.3748122E-17
   99.84650        1.3826547E-17
   100.0080        1.3873495E-17
   100.1695        1.3866072E-17
   100.3310        1.3813164E-17
   100.4925        1.3750165E-17
   100.6540        1.3717924E-17
   100.8155        1.3738439E-17
   100.9770        1.3801744E-17
   101.1385        1.3871848E-17
   101.3000        1.3908215E-17
   101.4615        1.3890022E-17
   101.6230        1.3828729E-17
   101.7845        1.3761443E-17
   101.9460        1.3728961E-17
   102.1075        1.3751529E-17
   102.2690        1.3816723E-17
   102.4305        1.3886723E-17
   102.5920        1.3920718E-17
   102.7535        1.3899180E-17
   102.9150        1.3835589E-17
   103.0765        1.3768557E-17
   103.2380        1.3738928E-17
   103.3995        1.3765419E-17
   103.5610        1.3833308E-17
   103.7225        1.3903030E-17
   103.8840        1.3933670E-17
   104.0455        1.3907399E-17
   104.2070        1.3840258E-17
   104.3685        1.3772715E-17
   104.5300        1.3745553E-17
   104.6915        1.3775451E-17
   104.8530        1.3844905E-17
   105.0145        1.3912604E-17
   105.1760        1.3938137E-17
   105.3375        1.3906253E-17
   105.4990        1.3836106E-17
   105.6605        1.3769932E-17
   105.8220        1.3747834E-17
   105.9835        1.3783803E-17
   106.1450        1.3857301E-17
   106.3065        1.3925476E-17
   106.4680        1.3948753E-17
   106.6295        1.3914525E-17
   106.7910        1.3844782E-17
   106.9525        1.3783081E-17
   107.1140        1.3768560E-17
   107.2755        1.3812519E-17
   107.4370        1.3891580E-17
   107.5985        1.3961594E-17
   107.7600        1.3984051E-17
   107.9215        1.3949220E-17
   108.0830        1.3882104E-17
   108.2445        1.3827543E-17
   108.4060        1.3823271E-17
   108.5675        1.3877075E-17
   108.7290        1.3961871E-17
   108.8905        1.4031749E-17
   109.0520        1.4049421E-17
   109.2135        1.4008555E-17
   109.3750        1.3937499E-17
   109.5365        1.3882109E-17
   109.6980        1.3878059E-17
   109.8595        1.3929328E-17
   110.0210        1.4005873E-17
   110.1825        1.4061857E-17
   110.3440        1.4063387E-17
   110.5055        1.4009037E-17
   110.6670        1.3930767E-17
   110.8285        1.3874806E-17
   110.9900        1.3874036E-17
   111.1515        1.3928506E-17
   111.3130        1.4005672E-17
   111.4745        1.4060090E-17
   111.6360        1.4060664E-17
   111.7975        1.4009108E-17
   111.9590        1.3938617E-17
   112.1205        1.3893701E-17
   112.2820        1.3903291E-17
   112.4435        1.3963323E-17
   112.6050        1.4039171E-17
   112.7665        1.4086421E-17
   112.9280        1.4077451E-17
   113.0895        1.4017871E-17
   113.2510        1.3942998E-17
   113.4125        1.3896568E-17
   113.5740        1.3904559E-17
   113.7355        1.3959881E-17
   113.8970        1.4027071E-17
   114.0585        1.4064004E-17
   114.2200        1.4047386E-17
   114.3815        1.3986641E-17
   114.5430        1.3917951E-17
   114.7045        1.3882274E-17
   114.8660        1.3900762E-17
   115.0275        1.3962352E-17
   115.1890        1.4030820E-17
   115.3505        1.4066731E-17
   115.5120        1.4050932E-17
   115.6735        1.3995519E-17
   115.8350        1.3935978E-17
   115.9965        1.3909532E-17
   116.1580        1.3932890E-17
   116.3195        1.3992645E-17
   116.4810        1.4053759E-17
   116.6425        1.4080740E-17
   116.8040        1.4058727E-17
   116.9655        1.4001931E-17
   117.1270        1.3944738E-17
   117.2885        1.3921033E-17
   117.4500        1.3944250E-17
   117.6115        1.3999929E-17
   117.7730        1.4054948E-17
   117.9345        1.4077607E-17
   118.0960        1.4056447E-17
   118.2575        1.4006684E-17
   118.4190        1.3960693E-17
   118.5805        1.3948525E-17
   118.7420        1.3980165E-17