  -27.90000        5.9782857E-18
  -27.73850        5.9803918E-18
  -27.57700        5.9837269E-18
  -27.41550        5.9871771E-18
  -27.25400        5.9900966E-18
  -27.09250        5.9926080E-18
  -26.93100        5.9953050E-18
  -26.76950        5.9986389E-18
  -26.60800        6.0024849E-18
  -26.44650        6.0062217E-18
  -26.28500        6.0092355E-18
  -26.12350        6.0114226E-18
  -25.96200        6.0132825E-18
  -25.80050        6.0155163E-18
  -25.63900        6.0184553E-18
  -25.47750        6.0217934E-18
  -25.31600        6.0248395E-18
  -25.15450        6.0270960E-18
  -24.99300        6.0286797E-18
  -24.83150        6.0302290E-18
  -24.67000        6.0323747E-18
  -24.50850        6.0352032E-18
  -24.34700        6.0381637E-18
  -24.18550        6.0404947E-18
  -24.02400        6.0418393E-18
  -23.86250        6.0425581E-18
  -23.70100        6.0434854E-18
  -23.53950        6.0453072E-18
  -23.37800        6.0480332E-18
  -23.21650        6.0509742E-18
  -23.05500        6.0532506E-18
  -22.89350        6.0544476E-18
  -22.73200        6.0549021E-18
  -22.57050        6.0554253E-18
  -22.40900        6.0566673E-18
  -22.24750        6.0586497E-18
  -22.08600        6.0608136E-18
  -21.92450        6.0625184E-18
  -21.76300        6.0635606E-18
  -21.60150        6.0642976E-18
  -21.44000        6.0652944E-18
  -21.27850        6.0668073E-18
  -21.11700        6.0685456E-18
  -20.95550        6.0699068E-18
  -20.79400        6.0705118E-18
  -20.63250        6.0706032E-18
  -20.47100        6.0709552E-18
  -20.30950        6.0723424E-18
  -20.14800        6.0749600E-18
  -19.98650        6.0782514E-18
  -19.82500        6.0812946E-18
  -19.66350        6.0834543E-18
  -19.50200        6.0847815E-18
  -19.34050        6.0858738E-18
  -19.17900        6.0873110E-18
  -19.01750        6.0891420E-18
  -18.85600        6.0908249E-18
  -18.69450        6.0916641E-18
  -18.53300        6.0913986E-18
  -18.37150        6.0904614E-18
  -18.21000        6.0897231E-18
  -18.04850        6.0898981E-18
  -17.88700        6.0910780E-18
  -17.72550        6.0927378E-18
  -17.56400        6.0942093E-18
  -17.40250        6.0952354E-18
  -17.24100        6.0961561E-18
  -17.07950        6.0975884E-18
  -16.91800        6.0998743E-18
  -16.75650        6.1027595E-18
  -16.59500        6.1055752E-18
  -16.43350        6.1077714E-18
  -16.27200        6.1093653E-18
  -16.11050        6.1109407E-18
  -15.94900        6.1131931E-18
  -15.78750        6.1163683E-18
  -15.62600        6.1200322E-18
  -15.46450        6.1233488E-18
  -15.30300        6.1256699E-18
  -15.14150        6.1269744E-18
  -14.98000        6.1278412E-18
  -14.81850        6.1289724E-18
  -14.65700        6.1306491E-18
  -14.49550        6.1325508E-18
  -14.33400        6.1340559E-18
  -14.17250        6.1347585E-18
  -14.01100        6.1347652E-18
  -13.84950        6.1345323E-18
  -13.68800        6.1344082E-18
  -13.52650        6.1342751E-18
  -13.36500        6.1335951E-18
  -13.20350        6.1318473E-18
  -13.04200        6.1290129E-18
  -12.88050        6.1257046E-18
  -12.71900        6.1228314E-18
  -12.55750        6.1210331E-18
  -12.39600        6.1203102E-18
  -12.23450        6.1201476E-18
  -12.07300        6.1200260E-18
  -11.91150        6.1199198E-18
  -11.75000        6.1203656E-18
  -11.58850        6.1220440E-18
  -11.42700        6.1251984E-18
  -11.26550        6.1293761E-18
  -11.10400        6.1336882E-18
  -10.94250        6.1374043E-18
  -10.78100        6.1404239E-18
  -10.61950        6.1432909E-18
  -10.45800        6.1467423E-18
  -10.29650        6.1511528E-18
  -10.13500        6.1562822E-18
  -9.973500        6.1615005E-18
  -9.812000        6.1662832E-18
  -9.650500        6.1705672E-18
  -9.489000        6.1746882E-18
  -9.327500        6.1789560E-18
  -9.166000        6.1832516E-18
  -9.004500        6.1869954E-18
  -8.843000        6.1895386E-18
  -8.681500        6.1906520E-18
  -8.520000        6.1907115E-18
  -8.358500        6.1904133E-18
  -8.197000        6.1902483E-18
  -8.035500        6.1901474E-18
  -7.874000        6.1895725E-18
  -7.712500        6.1879963E-18
  -7.551000        6.1853899E-18
  -7.389500        6.1823380E-18
  -7.228000        6.1796782E-18
  -7.066500        6.1779308E-18
  -6.905000        6.1769663E-18
  -6.743500        6.1761713E-18
  -6.582000        6.1749847E-18
  -6.420500        6.1733722E-18
  -6.259000        6.1718630E-18
  -6.097500        6.1711222E-18
  -5.936000        6.1714188E-18
  -5.774500        6.1724139E-18
  -5.613000        6.1734330E-18
  -5.451500        6.1740033E-18
  -5.290000        6.1742262E-18
  -5.128500        6.1746944E-18
  -4.967000        6.1760303E-18
  -4.805500        6.1783882E-18
  -4.644000        6.1813321E-18
  -4.482500        6.1841706E-18
  -4.321000        6.1864991E-18
  -4.159500        6.1884939E-18
  -3.998000        6.1907343E-18
  -3.836500        6.1936794E-18
  -3.675000        6.1972351E-18
  -3.513500        6.2007547E-18
  -3.352000        6.2034848E-18
  -3.190500        6.2050945E-18
  -3.029000        6.2058915E-18
  -2.867500        6.2065599E-18
  -2.706000        6.2076642E-18
  -2.544500        6.2092892E-18
  -2.383000        6.2110912E-18
  -2.221500        6.2126839E-18
  -2.060000        6.2140285E-18
  -1.898500        6.2154872E-18
  -1.737000        6.2174911E-18
  -1.575500        6.2201008E-18
  -1.414000        6.2228446E-18
  -1.252500        6.2250002E-18
  -1.091000        6.2261186E-18
 -0.9295000        6.2263601E-18
 -0.7680000        6.2263622E-18
 -0.6065000        6.2267245E-18
 -0.4450000        6.2275219E-18
 -0.2835000        6.2282300E-18
 -0.1220000        6.2281332E-18
  3.9500002E-02    6.2269127E-18
  0.2010000        6.2249721E-18
  0.3625000        6.2232354E-18
  0.5240000        6.2225638E-18
  0.6855000        6.2232073E-18
  0.8470000        6.2246913E-18
   1.008500        6.2262166E-18
   1.170000        6.2272514E-18
   1.331500        6.2278767E-18
   1.493000        6.2286390E-18
   1.654500        6.2300638E-18
   1.816000        6.2322368E-18
   1.977500        6.2347696E-18
   2.139000        6.2371296E-18
   2.300500        6.2390300E-18
   2.462000        6.2405707E-18
   2.623500        6.2420389E-18
   2.785000        6.2435804E-18
   2.946500        6.2450445E-18
   3.108000        6.2461397E-18
   3.269500        6.2467787E-18
   3.431000        6.2472774E-18
   3.592500        6.2482064E-18
   3.754000        6.2499401E-18
   3.915500        6.2522724E-18
   4.077000        6.2544305E-18
   4.238500        6.2555364E-18
   4.400000        6.2551927E-18
   4.561500        6.2537588E-18
   4.723000        6.2520945E-18
   4.884500        6.2509634E-18
   5.046000        6.2505390E-18
   5.207500        6.2503748E-18
   5.369000        6.2498458E-18
   5.530500        6.2487167E-18
   5.692000        6.2474077E-18
   5.853500        6.2467509E-18
   6.015000        6.2474197E-18
   6.176500        6.2494558E-18
   6.338000        6.2522426E-18
   6.499500        6.2549322E-18
   6.661000        6.2569869E-18
   6.822500        6.2584320E-18
   6.984000        6.2596649E-18
   7.145500        6.2610252E-18
   7.307000        6.2625096E-18
   7.468500        6.2638459E-18
   7.630000        6.2648261E-18
   7.791500        6.2655987E-18
   7.953000        6.2666446E-18
   8.114500        6.2684466E-18
   8.276000        6.2711197E-18
   8.437500        6.2742882E-18
   8.599000        6.2773347E-18
   8.760500        6.2798287E-18
   8.922000        6.2817887E-18
   9.083500        6.2835803E-18
   9.245000        6.2855184E-18
   9.406500        6.2875169E-18
   9.568000        6.2890873E-18
   9.729500        6.2896936E-18
   9.891000        6.2891882E-18
   10.05250        6.2879619E-18
   10.21400        6.2866901E-18
   10.37550        6.2858770E-18
   10.53700        6.2855540E-18
   10.69850        6.2853637E-18
   10.86000        6.2849551E-18
   11.02150        6.2843649E-18
   11.18300        6.2840704E-18
   11.34450        6.2846457E-18
   11.50600        6.2862831E-18
   11.66750        6.2885538E-18
   11.82900        6.2906312E-18
   11.99050        6.2918265E-18
   12.15200        6.2920391E-18
   12.31350        6.2917723E-18
   12.47500        6.2917181E-18
   12.63650        6.2922351E-18
   12.79800        6.2931214E-18
   12.95950        6.2938465E-18
   13.12100        6.2940375E-18
   13.28250        6.2938427E-18
   13.44400        6.2938800E-18
   13.60550        6.2948093E-18
   13.76700        6.2968438E-18
   13.92850        6.2995515E-18
   14.09000        6.3021042E-18
   14.25150        6.3037772E-18
   14.41300        6.3043405E-18
   14.57450        6.3040791E-18
   14.73600        6.3034889E-18
   14.89750        6.3029153E-18
   15.05900        6.3024405E-18
   15.22050        6.3020393E-18
   15.38200        6.3018143E-18
   15.54350        6.3020649E-18
   15.70500        6.3031134E-18
   15.86650        6.3050291E-18
   16.02800        6.3075115E-18
   16.18950        6.3100336E-18
   16.35100        6.3121557E-18
   16.51250        6.3137555E-18
   16.67400        6.3149764E-18
   16.83550        6.3159347E-18
   16.99700        6.3164434E-18
   17.15850        6.3160298E-18
   17.32000        6.3142964E-18
   17.48150        6.3113562E-18
   17.64300        6.3079817E-18
   17.80450        6.3052756E-18
   17.96600        6.3040468E-18
   18.12750        6.3043393E-18
   18.28900        6.3054506E-18
   18.45050        6.3064548E-18
   18.61200        6.3068626E-18
   18.77350        6.3069610E-18
   18.93500        6.3075921E-18
   19.09650        6.3095273E-18
   19.25800        6.3128811E-18
   19.41950        6.3169761E-18
   19.58100        6.3207509E-18
   19.74250        6.3234099E-18
   19.90400        6.3248550E-18
   20.06550        6.3256330E-18
   20.22700        6.3264800E-18
   20.38850        6.3278428E-18
   20.55000        6.3296849E-18
   20.71150        6.3316457E-18
   20.87300        6.3333543E-18
   21.03450        6.3346306E-18
   21.19600        6.3354756E-18
   21.35750        6.3359380E-18
   21.51900        6.3360331E-18
   21.68050        6.3357957E-18
   21.84200        6.3353867E-18
   22.00350        6.3350930E-18
   22.16500        6.3351414E-18
   22.32650        6.3354421E-18
   22.48800        6.3355182E-18
   22.64950        6.3347617E-18
   22.81100        6.3329192E-18
   22.97250        6.3304422E-18
   23.13400        6.3283899E-18
   23.29550        6.3278535E-18
   23.45700        6.3292701E-18
   23.61850        6.3320908E-18
   23.78000        6.3350595E-18
   23.94150        6.3369480E-18
   24.10300        6.3372586E-18
   24.26450        6.3364442E-18
   24.42600        6.3355165E-18
   24.58750        6.3353292E-18
   24.74900        6.3360368E-18
   24.91050        6.3370931E-18
   25.07200        6.3377433E-18
   25.23350        6.3376196E-18
   25.39500        6.3370025E-18
   25.55650        6.3365919E-18
   25.71800        6.3370187E-18
   25.87950        6.3384787E-18
   26.04100        6.3407211E-18
   26.20250        6.3433218E-18
   26.36400        6.3459721E-18
   26.52550        6.3485496E-18
   26.68700        6.3509811E-18
   26.84850        6.3530751E-18
   27.01000        6.3545284E-18
   27.17150        6.3551410E-18
   27.33300        6.3550549E-18
   27.49450        6.3547754E-18
   27.65600        6.3548891E-18
   27.81750        6.3556555E-18
   27.97900        6.3568011E-18
   28.14050        6.3577168E-18
   28.30200        6.3579339E-18
   28.46350        6.3575241E-18
   28.62500        6.3570923E-18
   28.78650        6.3573706E-18
   28.94800        6.3586949E-18
   29.10950        6.3607505E-18
   29.27100        6.3627701E-18
   29.43250        6.3640241E-18
   29.59400        6.3642395E-18
   29.75550        6.3636667E-18
   29.91700        6.3627643E-18
   30.07850        6.3617907E-18
   30.24000        6.3606355E-18
   30.40150        6.3590192E-18
   30.56300        6.3568785E-18
   30.72450        6.3545801E-18
   30.88600        6.3527550E-18
   31.04750        6.3518728E-18
   31.20900        6.3519117E-18
   31.37050        6.3523943E-18
   31.53200        6.3527835E-18
   31.69350        6.3529113E-18
   31.85500        6.3531173E-18
   32.01650        6.3539705E-18
   32.17800        6.3557982E-18
   32.33950        6.3583843E-18
   32.50100        6.3610731E-18
   32.66250        6.3632308E-18
   32.82400        6.3647065E-18
   32.98550        6.3659410E-18
   33.14700        6.3676388E-18
   33.30850        6.3702399E-18
   33.47000        6.3736078E-18
   33.63150        6.3771415E-18
   33.79300        6.3801892E-18
   33.95450        6.3824214E-18
   34.11600        6.3838871E-18
   34.27750        6.3847801E-18
   34.43900        6.3851598E-18
   34.60050        6.3848884E-18
   34.76200        6.3838160E-18
   34.92350        6.3820425E-18
   35.08500        6.3799787E-18
   35.24650        6.3781126E-18
   35.40800        6.3766530E-18
   35.56950        6.3753523E-18
   35.73100        6.3737190E-18
   35.89250        6.3714943E-18
   36.05400        6.3690149E-18
   36.21550        6.3671256E-18
   36.37700        6.3666421E-18
   36.53850        6.3677348E-18
   36.70000        6.3697192E-18
   36.86150        6.3714310E-18
   37.02300        6.3719567E-18
   37.18450        6.3712110E-18
   37.34600        6.3699649E-18
   37.50750        6.3693135E-18
   37.66900        6.3699496E-18
   37.83050        6.3717541E-18
   37.99200        6.3739581E-18
   38.15350        6.3757295E-18
   38.31500        6.3767506E-18
   38.47650        6.3773743E-18
   38.63800        6.3782979E-18
   38.79950        6.3800536E-18
   38.96100        6.3826877E-18
   39.12250        6.3858199E-18
   39.28400        6.3889367E-18
   39.44550        6.3916465E-18
   39.60700        6.3937273E-18
   39.76850        6.3950363E-18
   39.93000        6.3954491E-18
   40.09150        6.3949573E-18
   40.25300        6.3938348E-18
   40.41450        6.3926764E-18
   40.57600        6.3921602E-18
   40.73750        6.3926259E-18
   40.89900        6.3937658E-18
   41.06050        6.3947211E-18
   41.22200        6.3946190E-18
   41.38350        6.3932144E-18
   41.54500        6.3911647E-18
   41.70650        6.3896758E-18
   41.86800        6.3897229E-18
   42.02950        6.3913624E-18
   42.19100        6.3936429E-18
   42.35250        6.3951831E-18
   42.51400        6.3950404E-18
   42.67550        6.3932926E-18
   42.83700        6.3909579E-18
   42.99850        6.3893254E-18
   43.16000        6.3891575E-18
   43.32150        6.3902858E-18
   43.48300        6.3918326E-18
   43.64450        6.3928484E-18
   43.80600        6.3928877E-18
   43.96750        6.3921627E-18
   44.12900        6.3912565E-18
   44.29050        6.3906932E-18
   44.45200        6.3906957E-18
   44.61350        6.3912317E-18
   44.77500        6.3921825E-18
   44.93650        6.3934390E-18
   45.09800        6.3948481E-18
   45.25950        6.3961336E-18
   45.42100        6.3969653E-18
   45.58250        6.3972052E-18
   45.74400        6.3971489E-18
   45.90550        6.3975108E-18
   46.06700        6.3990452E-18
   46.22850        6.4019838E-18
   46.39000        6.4057148E-18
   46.55150        6.4090037E-18
   46.71300        6.4107039E-18
   46.87450        6.4105054E-18
   47.03600        6.4091612E-18
   47.19750        6.4080040E-18
   47.35900        6.4080462E-18
   47.52050        6.4093101E-18
   47.68200        6.4108417E-18
   47.84350        6.4114074E-18
   48.00500        6.4103652E-18
   48.16650        6.4081070E-18
   48.32800        6.4057710E-18
   48.48950        6.4044575E-18
   48.65100        6.4045199E-18
   48.81250        6.4054410E-18
   48.97400        6.4063248E-18
   49.13550        6.4066081E-18
   49.29700        6.4064257E-18
   49.45850        6.4063956E-18
   49.62000        6.4070532E-18
   49.78150        6.4084259E-18
   49.94300        6.4100658E-18
   50.10450        6.4114600E-18
   50.26600        6.4124336E-18
   50.42750        6.4132066E-18
   50.58900        6.4140867E-18
   50.75050        6.4150979E-18
   50.91200        6.4159003E-18
   51.07350        6.4160872E-18
   51.23500        6.4156194E-18
   51.39650        6.4149896E-18
   51.55800        6.4149246E-18
   51.71950        6.4158209E-18
   51.88100        6.4173702E-18
   52.04250        6.4187251E-18
   52.20400        6.4191147E-18
   52.36550        6.4184261E-18
   52.52700        6.4172763E-18
   52.68850        6.4164958E-18
   52.85000        6.4164251E-18
   53.01150        6.4166133E-18
   53.17300        6.4161658E-18
   53.33450        6.4145052E-18
   53.49600        6.4119393E-18
   53.65750        6.4095723E-18
   53.81900        6.4085822E-18
   53.98050        6.4093809E-18
   54.14200        6.4113144E-18
   54.30350        6.4131540E-18
   54.46500        6.4140313E-18
   54.62650        6.4140987E-18
   54.78800        6.4144051E-18
   54.94950        6.4160657E-18
   55.11100        6.4193769E-18
   55.27250        6.4235414E-18
   55.43400        6.4272020E-18
   55.59550        6.4293676E-18
   55.75700        6.4300273E-18
   55.91850        6.4300310E-18
   56.08000        6.4303722E-18
   56.24150        6.4314310E-18
   56.40300        6.4327471E-18
   56.56450        6.4334514E-18
   56.72600        6.4329671E-18
   56.88750        6.4314252E-18
   57.04900        6.4294921E-18
   57.21050        6.4278154E-18
   57.37200        6.4265746E-18
   57.53350        6.4255063E-18
   57.69500        6.4243119E-18
   57.85650        6.4230240E-18
   58.01800        6.4219846E-18
   58.17950        6.4214614E-18
   58.34100        6.4213009E-18
   58.50250        6.4209957E-18
   58.66400        6.4201756E-18
   58.82550        6.4191271E-18
   58.98700        6.4188301E-18
   59.14850        6.4203613E-18
   59.31000        6.4240315E-18
   59.47150        6.4289366E-18
   59.63300        6.4333641E-18
   59.79450        6.4358688E-18
   59.95600        6.4362663E-18
   60.11750        6.4357696E-18
   60.27900        6.4360959E-18
   60.44050        6.4381692E-18
   60.60200        6.4413708E-18
   60.76350        6.4439239E-18
   60.92500        6.4441489E-18
   61.08650        6.4416922E-18
   61.24800        6.4378338E-18
   61.40950        6.4346661E-18
   61.57100        6.4337273E-18
   61.73250        6.4350541E-18
   61.89400        6.4372879E-18
   62.05550        6.4386961E-18
   62.21700        6.4383322E-18
   62.37850        6.4365260E-18
   62.54000        6.4344490E-18
   62.70150        6.4332016E-18
   62.86300        6.4331486E-18
   63.02450        6.4339245E-18
   63.18600        6.4349258E-18
   63.34750        6.4357869E-18
   63.50900        6.4364470E-18
   63.67050        6.4368945E-18
   63.83200        6.4369553E-18
   63.99350        6.4364268E-18
   64.15500        6.4354602E-18
   64.31650        6.4347836E-18
   64.47800        6.4354052E-18
   64.63950        6.4378830E-18
   64.80100        6.4416980E-18
   64.96250        6.4453181E-18
   65.12400        6.4470887E-18
   65.28550        6.4463877E-18
   65.44700        6.4441758E-18
   65.60850        6.4424271E-18
   65.77000        6.4427613E-18
   65.93150        6.4452383E-18
   66.09300        6.4482306E-18
   66.25450        6.4495202E-18
   66.41600        6.4478799E-18
   66.57750        6.4439988E-18
   66.73900        6.4400949E-18
   66.90050        6.4384653E-18
   67.06200        6.4399841E-18
   67.22350        6.4435827E-18
   67.38500        6.4470407E-18
   67.54650        6.4484771E-18
   67.70800        6.4474882E-18
   67.86950        6.4451891E-18
   68.03100        6.4432589E-18
   68.19250        6.4427849E-18
   68.35400        6.4437304E-18
   68.51550        6.4452685E-18
   68.67700        6.4465651E-18
   68.83850        6.4473352E-18
   69.00000        6.4478249E-18
   69.16150        6.4483783E-18
   69.32300        6.4490801E-18
   69.48450        6.4497746E-18
   69.64600        6.4503887E-18
   69.80750        6.4511564E-18
   69.96900        6.4524352E-18
   70.13050        6.4542298E-18
   70.29200        6.4558775E-18
   70.45350        6.4563155E-18
   70.61500        6.4548559E-18
   70.77650        6.4518963E-18
   70.93800        6.4489048E-18
   71.09950        6.4475499E-18
   71.26100        6.4485338E-18
   71.42250        6.4510112E-18
   71.58400        6.4531040E-18
   71.74550        6.4532181E-18
   71.90700        6.4512292E-18
   72.06850        6.4486546E-18
   72.23000        6.4476284E-18
   72.39150        6.4493746E-18
   72.55300        6.4532715E-18
   72.71450        6.4572018E-18
   72.87600        6.4589587E-18
   73.03750        6.4577031E-18
   73.19900        6.4544324E-18
   73.36050        6.4511688E-18
   73.52200        6.4495210E-18
   73.68350        6.4496708E-18
   73.84500        6.4504760E-18
   74.00650        6.4505037E-18
   74.16800        6.4491451E-18
   74.32950        6.4469985E-18
   74.49100        6.4453268E-18
   74.65250        6.4450861E-18
   74.81400        6.4463021E-18
   74.97550        6.4482162E-18
   75.13700        6.4499727E-18
   75.29850        6.4512436E-18
   75.46000        6.4522834E-18
   75.62150        6.4534675E-18
   75.78300        6.4548129E-18
   75.94450        6.4559590E-18
   76.10600        6.4566178E-18
   76.26750        6.4570269E-18
   76.42900        6.4579120E-18
   76.59050        6.4598947E-18
   76.75200        6.4628320E-18
   76.91350        6.4656957E-18
   77.07500        6.4672057E-18
   77.23650        6.4667868E-18
   77.39800        6.4651018E-18
   77.55950        6.4636567E-18
   77.72100        6.4636985E-18
   77.88250        6.4652073E-18
   78.04400        6.4668058E-18
   78.20550        6.4667276E-18
   78.36700        6.4641807E-18
   78.52850        6.4600494E-18
   78.69000        6.4563680E-18
   78.85150        6.4549151E-18
   79.01300        6.4559635E-18
   79.17450        6.4581179E-18
   79.33600        6.4593579E-18
   79.49750        6.4585071E-18
   79.65900        6.4560363E-18
   79.82050        6.4536313E-18
   79.98200        6.4528893E-18
   80.14350        6.4541297E-18
   80.30500        6.4561902E-18
   80.46650        6.4573267E-18
   80.62800        6.4564871E-18
   80.78950        6.4540081E-18
   80.95100        6.4512643E-18
   81.11250        6.4496352E-18
   81.27400        6.4496236E-18
   81.43550        6.4507568E-18
   81.59700        6.4522135E-18
   81.75850        6.4535626E-18
   81.92000        6.4549928E-18
   82.08150        6.4569177E-18
   82.24300        6.4593819E-18
   82.40450        6.4618638E-18
   82.56600        6.4636460E-18
   82.72750        6.4644388E-18
   82.88900        6.4646551E-18
   83.05050        6.4650526E-18
   83.21200        6.4660129E-18
   83.37350        6.4671073E-18
   83.53500        6.4673840E-18
   83.69650        6.4662140E-18
   83.85800        6.4640017E-18
   84.01950        6.4621045E-18
   84.18100        6.4619180E-18
   84.34250        6.4637853E-18
   84.50400        6.4666060E-18
   84.66550        6.4685189E-18
   84.82700        6.4682058E-18
   84.98850        6.4658682E-18
   85.15000        6.4631170E-18
   85.31150        6.4618295E-18
   85.47300        6.4627960E-18
   85.63450        6.4651568E-18
   85.79600        6.4670482E-18
   85.95750        6.4669675E-18
   86.11900        6.4648334E-18
   86.28050        6.4619887E-18
   86.44200        6.4601565E-18
   86.60350        6.4601950E-18
   86.76500        6.4615433E-18
   86.92650        6.4627381E-18
   87.08800        6.4625193E-18
   87.24950        6.4606876E-18
   87.41100        6.4581121E-18
   87.57250        6.4559805E-18
   87.73400        6.4549428E-18
   87.89550        6.4547918E-18
   88.05700        6.4548464E-18
   88.21850        6.4546309E-18
   88.38000        6.4542546E-18
   88.54150        6.4542190E-18
   88.70300        6.4548903E-18
   88.86450        6.4561587E-18
   89.02600        6.4575856E-18
   89.18750        6.4588913E-18
   89.34900        6.4602806E-18
   89.51050        6.4622625E-18
   89.67200        6.4650832E-18
   89.83350        6.4682711E-18
   89.99500        6.4707556E-18
   90.15650        6.4715749E-18
   90.31800        6.4706485E-18
   90.47950        6.4689647E-18
   90.64100        6.4679750E-18
   90.80250        6.4685656E-18
   90.96400        6.4703883E-18
   91.12550        6.4721031E-18
   91.28700        6.4723810E-18
   91.44850        6.4709467E-18
   91.61000        6.4688444E-18
   91.77150        6.4676971E-18
   91.93300        6.4684870E-18
   92.09450        6.4707779E-18
   92.25600        6.4729567E-18
   92.41750        6.4733517E-18
   92.57900        6.4713979E-18
   92.74050        6.4680110E-18
   92.90200        6.4649111E-18
   93.06350        6.4634197E-18
   93.22500        6.4635992E-18
   93.38650        6.4643363E-18
   93.54800        6.4642333E-18
   93.70950        6.4626211E-18
   93.87100        6.4599580E-18
   94.03250        6.4574008E-18
   94.19400        6.4559457E-18
   94.35550        6.4558134E-18
   94.51700        6.4564768E-18
   94.67850        6.4571964E-18
   94.84000        6.4575860E-18
   95.00150        6.4577755E-18
   95.16300        6.4581369E-18
   95.32450        6.4589083E-18
   95.48600        6.4600663E-18
   95.64750        6.4615118E-18
   95.80900        6.4633118E-18
   95.97050        6.4656846E-18
   96.13200        6.4686864E-18
   96.29350        6.4718880E-18
   96.45500        6.4744138E-18
   96.61650        6.4754428E-18
   96.77800        6.4748497E-18
   96.93950        6.4734394E-18
   97.10100        6.4725051E-18
   97.26250        6.4729298E-18
   97.42400        6.4744758E-18
   97.58550        6.4758498E-18
   97.74700        6.4755681E-18
   97.90850        6.4730622E-18
   98.07000        6.4692112E-18
   98.23150        6.4658872E-18
   98.39300        6.4647767E-18
   98.55450        6.4662847E-18
   98.71600        6.4692923E-18
   98.87750        6.4719236E-18
   99.03900        6.4727747E-18
   99.20050        6.4717631E-18
   99.36200        6.4700355E-18
   99.52350        6.4690735E-18
   99.68500        6.4696521E-18
   99.84650        6.4713896E-18
   100.0080        6.4731102E-18
   100.1695        6.4736908E-18
   100.3310        6.4727528E-18
   100.4925        6.4707593E-18
   100.6540        6.4685640E-18
   100.8155        6.4668257E-18
   100.9770        6.4657210E-18
   101.1385        6.4650604E-18
   101.3000        6.4645935E-18
   101.4615        6.4641969E-18
   101.6230        6.4638147E-18
   101.7845        6.4633184E-18
   101.9460        6.4625003E-18
   102.1075        6.4612823E-18
   102.2690        6.4599547E-18
   102.4305        6.4591643E-18
   102.5920        6.4595543E-18
   102.7535        6.4612790E-18
   102.9150        6.4637762E-18
   103.0765        6.4660555E-18
   103.2380        6.4673468E-18
   103.3995        6.4676495E-18
   103.5610        6.4677360E-18
   103.7225        6.4685636E-18
   103.8840        6.4705136E-18
   104.0455        6.4730274E-18
   104.2070        6.4749411E-18
   104.3685        6.4752943E-18
   104.5300        6.4740263E-18
   104.6915        6.4720377E-18
   104.8530        6.4705629E-18
   105.0145        6.4703151E-18
   105.1760        6.4710232E-18
   105.3375        6.4717027E-18
   105.4990        6.4714260E-18
   105.6605        6.4700177E-18
   105.8220        6.4681587E-18
   105.9835        6.4668563E-18
   106.1450        6.4667156E-18
   106.3065        6.4675565E-18
   106.4680        6.4686306E-18
   106.6295        6.4692307E-18
   106.7910        6.4692013E-18
   106.9525        6.4689916E-18
   107.1140        6.4692576E-18
   107.2755        6.4703594E-18
   107.4370        6.4721424E-18
   107.5985        6.4741226E-18
   107.7600        6.4758853E-18
   107.9215        6.4773503E-18
   108.0830        6.4787089E-18
   108.2445        6.4801449E-18
   108.4060        6.4816115E-18
   108.5675        6.4828556E-18
   108.7290        6.4836422E-18
   108.8905        6.4839363E-18
   109.0520        6.4838755E-18
   109.2135        6.4835442E-18
   109.3750        6.4827828E-18
   109.5365        6.4812269E-18
   109.6980        6.4785795E-18
   109.8595        6.4749056E-18
   110.0210        6.4707043E-18
   110.1825        6.4666602E-18
   110.3440        6.4632560E-18
   110.5055        6.4605345E-18
   110.6670        6.4582110E-18
   110.8285        6.4560363E-18
   110.9900        6.4541135E-18
   111.1515        6.4528831E-18
   111.3130        6.4527888E-18
   111.4745        6.4538803E-18
   111.6360        6.4557021E-18
   111.7975        6.4575616E-18
   111.9590        6.4590005E-18
   112.1205        6.4601110E-18
   112.2820        6.4614419E-18
   112.4435        6.4635562E-18
   112.6050        6.4665651E-18
   112.7665        6.4699627E-18
   112.9280        6.4729199E-18
   113.0895        6.4748042E-18
   113.2510        6.4755706E-18
   113.4125        6.4757344E-18
   113.5740        6.4759656E-18
   113.7355        6.4765963E-18
   113.8970        6.4773970E-18
   114.0585        6.4777531E-18
   114.2200        6.4771021E-18
   114.3815        6.4753299E-18
   114.5430        6.4728897E-18
   114.7045        6.4705844E-18
   114.8660        6.4691682E-18
   115.0275        6.4690061E-18
   115.1890        6.4699474E-18
   115.3505        6.4714612E-18
   115.5120        6.4729257E-18
   115.6735        6.4739084E-18
   115.8350        6.4743323E-18
   115.9965        6.4744647E-18
   116.1580        6.4747600E-18
   116.3195        6.4756012E-18
   116.4810        6.4770451E-18
   116.6425        6.4787126E-18
   116.8040        6.4799166E-18
   116.9655        6.4799911E-18
   117.1270        6.4786672E-18
   117.2885        6.4762605E-18
   117.4500        6.4735362E-18
   117.6115        6.4713156E-18
   117.7730        6.4700496E-18
   117.9345        6.4696013E-18
   118.0960        6.4693783E-18
   118.2575        6.4687451E-18
   118.4190        6.4674456E-18
   118.5805        6.4657842E-18
   118.7420        6.4644380E-18