  -27.90000        8.9241985E-18
  -27.73850        8.9536668E-18
  -27.57700        8.9992858E-18
  -27.41550        9.0420759E-18
  -27.25400        9.0672660E-18
  -27.09250        9.0717750E-18
  -26.93100        9.0652965E-18
  -26.76950        9.0644577E-18
  -26.60800        9.0832844E-18
  -26.44650        9.1251678E-18
  -26.28500        9.1807023E-18
  -26.12350        9.2325698E-18
  -25.96200        9.2647918E-18
  -25.80050        9.2713265E-18
  -25.63900        9.2593423E-18
  -25.47750        9.2453861E-18
  -25.31600        9.2465442E-18
  -25.15450        9.2713629E-18
  -24.99300        9.3154285E-18
  -24.83150        9.3639476E-18
  -24.67000        9.3998786E-18
  -24.50850        9.4131739E-18
  -24.34700        9.4061230E-18
  -24.18550        9.3919509E-18
  -24.02400        9.3875040E-18
  -23.86250        9.4040468E-18
  -23.70100        9.4411839E-18
  -23.53950        9.4871876E-18
  -23.37800        9.5254778E-18
  -23.21650        9.5436865E-18
  -23.05500        9.5403480E-18
  -22.89350        9.5255869E-18
  -22.73200        9.5154978E-18
  -22.57050        9.5233097E-18
  -22.40900        9.5521949E-18
  -22.24750        9.5936126E-18
  -22.08600        9.6320434E-18
  -21.92450        9.6534906E-18
  -21.76300        9.6530770E-18
  -21.60150        9.6376037E-18
  -21.44000        9.6217525E-18
  -21.27850        9.6200344E-18
  -21.11700        9.6389487E-18
  -20.95550        9.6736093E-18
  -20.79400        9.7106454E-18
  -20.63250        9.7357140E-18
  -20.47100        9.7414389E-18
  -20.30950        9.7314168E-18
  -20.14800        9.7181157E-18
  -19.98650        9.7158592E-18
  -19.82500        9.7328073E-18
  -19.66350        9.7663536E-18
  -19.50200        9.8044849E-18
  -19.34050        9.8323212E-18
  -19.17900        9.8402498E-18
  -19.01750        9.8291589E-18
  -18.85600        9.8099137E-18
  -18.69450        9.7973944E-18
  -18.53300        9.8023947E-18
  -18.37150        9.8258403E-18
  -18.21000        9.8585015E-18
  -18.04850        9.8863055E-18
  -17.88700        9.8982856E-18
  -17.72550        9.8927493E-18
  -17.56400        9.8782264E-18
  -17.40250        9.8686725E-18
  -17.24100        9.8755869E-18
  -17.07950        9.9014123E-18
  -16.91800        9.9378993E-18
  -16.75650        9.9704017E-18
  -16.59500        9.9857641E-18
  -16.43350        9.9794940E-18
  -16.27200        9.9582644E-18
  -16.11050        9.9363615E-18
  -15.94900        9.9280020E-18
  -15.78750        9.9397240E-18
  -15.62600        9.9670433E-18
  -15.46450        9.9971982E-18
  -15.30300        1.0016474E-17
  -15.14150        1.0018058E-17
  -14.98000        1.0006062E-17
  -14.81850        9.9934337E-18
  -14.65700        9.9948614E-18
  -14.49550        1.0018539E-17
  -14.33400        1.0061347E-17
  -14.17250        1.0110124E-17
  -14.01100        1.0148456E-17
  -13.84950        1.0165299E-17
  -13.68800        1.0160755E-17
  -13.52650        1.0145833E-17
  -13.36500        1.0136299E-17
  -13.20350        1.0143932E-17
  -13.04200        1.0169987E-17
  -12.88050        1.0204446E-17
  -12.71900        1.0231502E-17
  -12.55750        1.0238319E-17
  -12.39600        1.0222264E-17
  -12.23450        1.0192641E-17
  -12.07300        1.0165911E-17
  -11.91150        1.0156950E-17
  -11.75000        1.0171095E-17
  -11.58850        1.0201307E-17
  -11.42700        1.0232044E-17
  -11.26550        1.0247773E-17
  -11.10400        1.0241513E-17
  -10.94250        1.0218755E-17
  -10.78100        1.0194609E-17
  -10.61950        1.0185680E-17
  -10.45800        1.0201063E-17
  -10.29650        1.0237341E-17
  -10.13500        1.0280311E-17
  -9.973500        1.0312529E-17
  -9.812000        1.0322606E-17
  -9.650500        1.0311233E-17
  -9.489000        1.0290662E-17
  -9.327500        1.0277941E-17
  -9.166000        1.0285561E-17
  -9.004500        1.0314609E-17
  -8.843000        1.0354145E-17
  -8.681500        1.0387169E-17
  -8.520000        1.0399942E-17
  -8.358500        1.0389617E-17
  -8.197000        1.0366008E-17
  -8.035500        1.0346525E-17
  -7.874000        1.0346963E-17
  -7.712500        1.0373137E-17
  -7.551000        1.0417847E-17
  -7.389500        1.0464802E-17
  -7.228000        1.0497355E-17
  -7.066500        1.0507311E-17
  -6.905000        1.0499057E-17
  -6.743500        1.0486813E-17
  -6.582000        1.0486570E-17
  -6.420500        1.0507124E-17
  -6.259000        1.0545116E-17
  -6.097500        1.0586760E-17
  -5.936000        1.0615300E-17
  -5.774500        1.0620131E-17
  -5.613000        1.0602596E-17
  -5.451500        1.0575353E-17
  -5.290000        1.0555648E-17
  -5.128500        1.0556177E-17
  -4.967000        1.0578466E-17
  -4.805500        1.0612330E-17
  -4.644000        1.0641626E-17
  -4.482500        1.0653126E-17
  -4.321000        1.0643671E-17
  -4.159500        1.0621719E-17
  -3.998000        1.0602515E-17
  -3.836500        1.0599595E-17
  -3.675000        1.0617286E-17
  -3.513500        1.0648323E-17
  -3.352000        1.0677863E-17
  -3.190500        1.0691657E-17
  -3.029000        1.0683900E-17
  -2.867500        1.0660437E-17
  -2.706000        1.0635603E-17
  -2.544500        1.0624443E-17
  -2.383000        1.0634606E-17
  -2.221500        1.0662345E-17
  -2.060000        1.0694784E-17
  -1.898500        1.0717146E-17
  -1.737000        1.0720908E-17
  -1.575500        1.0708411E-17
  -1.414000        1.0691388E-17
  -1.252500        1.0684310E-17
  -1.091000        1.0696249E-17
 -0.9295000        1.0725799E-17
 -0.7680000        1.0761837E-17
 -0.6065000        1.0789695E-17
 -0.4450000        1.0799271E-17
 -0.2835000        1.0790590E-17
 -0.1220000        1.0773738E-17
  3.9500002E-02    1.0763215E-17
  0.2010000        1.0769856E-17
  0.3625000        1.0794805E-17
  0.5240000        1.0828851E-17
  0.6855000        1.0857523E-17
  0.8470000        1.0869098E-17
   1.008500        1.0861102E-17
   1.170000        1.0841707E-17
   1.331500        1.0825252E-17
   1.493000        1.0824362E-17
   1.654500        1.0843041E-17
   1.816000        1.0874555E-17
   1.977500        1.0905286E-17
   2.139000        1.0922416E-17
   2.300500        1.0921172E-17
   2.462000        1.0907596E-17
   2.623500        1.0895257E-17
   2.785000        1.0897698E-17
   2.946500        1.0920780E-17
   3.108000        1.0959205E-17
   3.269500        1.0999165E-17
   3.431000        1.1025738E-17
   3.592500        1.1030940E-17
   3.754000        1.1018048E-17
   3.915500        1.0999749E-17
   4.077000        1.0991138E-17
   4.238500        1.1001428E-17
   4.400000        1.1028896E-17
   4.561500        1.1061926E-17
   4.723000        1.1085540E-17
   4.884500        1.1089844E-17
   5.046000        1.1075715E-17
   5.207500        1.1054547E-17
   5.369000        1.1042146E-17
   5.530500        1.1050097E-17
   5.692000        1.1079309E-17
   5.853500        1.1119317E-17
   6.015000        1.1153744E-17
   6.176500        1.1169013E-17
   6.338000        1.1161556E-17
   6.499500        1.1139612E-17
   6.661000        1.1118614E-17
   6.822500        1.1112704E-17
   6.984000        1.1126968E-17
   7.145500        1.1154693E-17
   7.307000        1.1181103E-17
   7.468500        1.1191582E-17
   7.630000        1.1179866E-17
   7.791500        1.1151716E-17
   7.953000        1.1122031E-17
   8.114500        1.1106940E-17
   8.276000        1.1115147E-17
   8.437500        1.1143260E-17
   8.599000        1.1177654E-17
   8.760500        1.1201865E-17
   8.922000        1.1205501E-17
   9.083500        1.1189830E-17
   9.245000        1.1167014E-17
   9.406500        1.1153421E-17
   9.568000        1.1160665E-17
   9.729500        1.1189265E-17
   9.891000        1.1228345E-17
   10.05250        1.1261540E-17
   10.21400        1.1275848E-17
   10.37550        1.1268642E-17
   10.53700        1.1248995E-17
   10.69850        1.1232673E-17
   10.86000        1.1233518E-17
   11.02150        1.1255935E-17
   11.18300        1.1292548E-17
   11.34450        1.1328260E-17
   11.50600        1.1348490E-17
   11.66750        1.1347090E-17
   11.82900        1.1329658E-17
   11.99050        1.1310476E-17
   12.15200        1.1304773E-17
   12.31350        1.1320526E-17
   12.47500        1.1354228E-17
   12.63650        1.1392880E-17
   12.79800        1.1421064E-17
   12.95950        1.1429223E-17
   13.12100        1.1418665E-17
   13.28250        1.1400603E-17
   13.44400        1.1389839E-17
   13.60550        1.1396556E-17
   13.76700        1.1420711E-17
   13.92850        1.1452076E-17
   14.09000        1.1475844E-17
   14.25150        1.1480751E-17
   14.41300        1.1465249E-17
   14.57450        1.1438409E-17
   14.73600        1.1415106E-17
   14.89750        1.1408129E-17
   15.05900        1.1421523E-17
   15.22050        1.1448726E-17
   15.38200        1.1476472E-17
   15.54350        1.1492225E-17
   15.70500        1.1491071E-17
   15.86650        1.1478301E-17
   16.02800        1.1466329E-17
   16.18950        1.1467704E-17
   16.35100        1.1488089E-17
   16.51250        1.1523049E-17
   16.67400        1.1560380E-17
   16.83550        1.1586669E-17
   16.99700        1.1594463E-17
   17.15850        1.1586150E-17
   17.32000        1.1572458E-17
   17.48150        1.1566461E-17
   17.64300        1.1576404E-17
   17.80450        1.1601268E-17
   17.96600        1.1631470E-17
   18.12750        1.1654242E-17
   18.28900        1.1660699E-17
   18.45050        1.1650702E-17
   18.61200        1.1632874E-17
   18.77350        1.1619801E-17
   18.93500        1.1621094E-17
   19.09650        1.1638114E-17
   19.25800        1.1663276E-17
   19.41950        1.1684288E-17
   19.58100        1.1690962E-17
   19.74250        1.1680868E-17
   19.90400        1.1660698E-17
   20.06550        1.1642628E-17
   20.22700        1.1637669E-17
   20.38850        1.1649697E-17
   20.55000        1.1673409E-17
   20.71150        1.1697355E-17
   20.87300        1.1710342E-17
   21.03450        1.1707656E-17
   21.19600        1.1693698E-17
   21.35750        1.1679531E-17
   21.51900        1.1676740E-17
   21.68050        1.1690970E-17
   21.84200        1.1718741E-17
   22.00350        1.1749293E-17
   22.16500        1.1770461E-17
   22.32650        1.1775334E-17
   22.48800        1.1766037E-17
   22.64950        1.1752537E-17
   22.81100        1.1747127E-17
   22.97250        1.1757602E-17
   23.13400        1.1782888E-17
   23.29550        1.1813530E-17
   23.45700        1.1836794E-17
   23.61850        1.1843598E-17
   23.78000        1.1833480E-17
   23.94150        1.1814870E-17
   24.10300        1.1800511E-17
   24.26450        1.1800510E-17
   24.42600        1.1816818E-17
   24.58750        1.1842177E-17
   24.74900        1.1864140E-17
   24.91050        1.1872006E-17
   25.07200        1.1862855E-17
   25.23350        1.1843378E-17
   25.39500        1.1826420E-17
   25.55650        1.1824094E-17
   25.71800        1.1841189E-17
   25.87950        1.1872485E-17
   26.04100        1.1905471E-17
   26.20250        1.1927021E-17
   26.36400        1.1930438E-17
   26.52550        1.1918985E-17
   26.68700        1.1903999E-17
   26.84850        1.1898583E-17
   27.01000        1.1910317E-17
   27.17150        1.1936990E-17
   27.33300        1.1967719E-17
   27.49450        1.1988843E-17
   27.65600        1.1991443E-17
   27.81750        1.1976332E-17
   27.97900        1.1953823E-17
   28.14050        1.1938342E-17
   28.30200        1.1940781E-17
   28.46350        1.1962727E-17
   28.62500        1.1995686E-17
   28.78650        1.2025742E-17
   28.94800        1.2041093E-17
   29.10950        1.2038410E-17
   29.27100        1.2024538E-17
   29.43250        1.2012652E-17
   29.59400        1.2014936E-17
   29.75550        1.2035787E-17
   29.91700        1.2069238E-17
   30.07850        1.2102020E-17
   30.24000        1.2120635E-17
   30.40150        1.2118600E-17
   30.56300        1.2099934E-17
   30.72450        1.2076994E-17
   30.88600        1.2063815E-17
   31.04750        1.2068587E-17
   31.20900        1.2089318E-17
   31.37050        1.2115059E-17
   31.53200        1.2131981E-17
   31.69350        1.2131007E-17
   31.85500        1.2112838E-17
   32.01650        1.2087656E-17
   32.17800        1.2069630E-17
   32.33950        1.2069283E-17
   32.50100        1.2087839E-17
   32.66250        1.2116643E-17
   32.82400        1.2141957E-17
   32.98550        1.2152469E-17
   33.14700        1.2145462E-17
   33.30850        1.2128215E-17
   33.47000        1.2113968E-17
   33.63150        1.2114607E-17
   33.79300        1.2134095E-17
   33.95450        1.2166244E-17
   34.11600        1.2198011E-17
   34.27750        1.2216522E-17
   34.43900        1.2215984E-17
   34.60050        1.2200725E-17
   34.76200        1.2182740E-17
   34.92350        1.2175123E-17
   35.08500        1.2184986E-17
   35.24650        1.2209713E-17
   35.40800        1.2238574E-17
   35.56950        1.2258762E-17
   35.73100        1.2262530E-17
   35.89250        1.2251496E-17
   36.05400        1.2235771E-17
   36.21550        1.2228388E-17
   36.37700        1.2238109E-17
   36.53850        1.2264530E-17
   36.70000        1.2298188E-17
   36.86150        1.2325592E-17
   37.02300        1.2336456E-17
   37.18450        1.2329171E-17
   37.34600        1.2311571E-17
   37.50750        1.2296563E-17
   37.66900        1.2295055E-17
   37.83050        1.2310058E-17
   37.99200        1.2335180E-17
   38.15350        1.2358338E-17
   38.31500        1.2368603E-17
   38.47650        1.2362371E-17
   38.63800        1.2345463E-17
   38.79950        1.2329975E-17
   38.96100        1.2327622E-17
   39.12250        1.2343234E-17
   39.28400        1.2371986E-17
   39.44550        1.2401909E-17
   39.60700        1.2420297E-17
   39.76850        1.2420495E-17
   39.93000        1.2405362E-17
   40.09150        1.2385532E-17
   40.25300        1.2373466E-17
   40.41450        1.2376597E-17
   40.57600        1.2393328E-17
   40.73750        1.2414062E-17
   40.89900        1.2426671E-17
   41.06050        1.2423384E-17
   41.22200        1.2405271E-17
   41.38350        1.2381857E-17
   41.54500        1.2366060E-17
   41.70650        1.2367199E-17
   41.86800        1.2385939E-17
   42.02950        1.2413927E-17
   42.19100        1.2438336E-17
   42.35250        1.2448834E-17
   42.51400        1.2443184E-17
   42.67550        1.2428380E-17
   42.83700        1.2416717E-17
   42.99850        1.2418921E-17
   43.16000        1.2438126E-17
   43.32150        1.2468036E-17
   43.48300        1.2496295E-17
   43.64450        1.2511220E-17
   43.80600        1.2508197E-17
   43.96750        1.2492196E-17
   44.12900        1.2475014E-17
   44.29050        1.2468766E-17
   44.45200        1.2479198E-17
   44.61350        1.2502547E-17
   44.77500        1.2527658E-17
   44.93650        1.2542231E-17
   45.09800        1.2539739E-17
   45.25950        1.2523187E-17
   45.42100        1.2503637E-17
   45.58250        1.2494276E-17
   45.74400        1.2503300E-17
   45.90550        1.2529491E-17
   46.06700        1.2562909E-17
   46.22850        1.2590291E-17
   46.39000        1.2602220E-17
   46.55150        1.2598121E-17
   46.71300        1.2586393E-17
   46.87450        1.2579568E-17
   47.03600        1.2587221E-17
   47.19750        1.2610491E-17
   47.35900        1.2641276E-17
   47.52050        1.2666546E-17
   47.68200        1.2675448E-17
   47.84350        1.2665307E-17
   48.00500        1.2643255E-17
   48.16650        1.2622531E-17
   48.32800        1.2615470E-17
   48.48950        1.2626952E-17
   48.65100        1.2651898E-17
   48.81250        1.2678203E-17
   48.97400        1.2693455E-17
   49.13550        1.2691775E-17
   49.29700        1.2676980E-17
   49.45850        1.2660357E-17
   49.62000        1.2654259E-17
   49.78150        1.2665115E-17
   49.94300        1.2689672E-17
   50.10450        1.2716622E-17
   50.26600        1.2732708E-17
   50.42750        1.2729980E-17
   50.58900        1.2710194E-17
   50.75050        1.2683951E-17
   50.91200        1.2665023E-17
   51.07350        1.2663004E-17
   51.23500        1.2678291E-17
   51.39650        1.2702114E-17
   51.55800        1.2721537E-17
   51.71950        1.2726674E-17
   51.88100        1.2716142E-17
   52.04250        1.2697778E-17
   52.20400        1.2684260E-17
   52.36550        1.2686020E-17
   52.52700        1.2705390E-17
   52.68850        1.2735181E-17
   52.85000        1.2762494E-17
   53.01150        1.2775676E-17
   53.17300        1.2770609E-17
   53.33450        1.2752909E-17
   53.49600        1.2734824E-17
   53.65750        1.2728514E-17
   53.81900        1.2739404E-17
   53.98050        1.2763228E-17
   54.14200        1.2788442E-17
   54.30350        1.2802637E-17
   54.46500        1.2799453E-17
   54.62650        1.2782155E-17
   54.78800        1.2761896E-17
   54.94950        1.2751622E-17
   55.11100        1.2758974E-17
   55.27250        1.2782113E-17
   55.43400        1.2810762E-17
   55.59550        1.2831911E-17
   55.75700        1.2837017E-17
   55.91850        1.2826746E-17
   56.08000        1.2810603E-17
   56.24150        1.2801641E-17
   56.40300        1.2809187E-17
   56.56450        1.2833594E-17
   56.72600        1.2865906E-17
   56.88750        1.2892636E-17
   57.04900        1.2903017E-17
   57.21050        1.2894796E-17
   57.37200        1.2875381E-17
   57.53350        1.2857734E-17
   57.69500        1.2853271E-17
   57.85650        1.2865665E-17
   58.01800        1.2888955E-17
   58.17950        1.2910995E-17
   58.34100        1.2920336E-17
   58.50250        1.2912738E-17
   58.66400        1.2893724E-17
   58.82550        1.2875737E-17
   58.98700        1.2871416E-17
   59.14850        1.2886640E-17
   59.31000        1.2917154E-17
   59.47150        1.2950659E-17
   59.63300        1.2973291E-17
   59.79450        1.2976965E-17
   59.95600        1.2963584E-17
   60.11750        1.2943812E-17
   60.27900        1.2931067E-17
   60.44050        1.2934066E-17
   60.60200        1.2951991E-17
   60.76350        1.2974977E-17
   60.92500        1.2989656E-17
   61.08650        1.2986723E-17
   61.24800        1.2966353E-17
   61.40950        1.2938412E-17
   61.57100        1.2917297E-17
   61.73250        1.2914220E-17
   61.89400        1.2931137E-17
   62.05550        1.2959702E-17
   62.21700        1.2985793E-17
   62.37850        1.2997158E-17
   62.54000        1.2989986E-17
   62.70150        1.2970836E-17
   62.86300        1.2952874E-17
   63.02450        1.2948507E-17
   63.18600        1.2962471E-17
   63.34750        1.2989180E-17
   63.50900        1.3015799E-17
   63.67050        1.3029335E-17
   63.83200        1.3023849E-17
   63.99350        1.3003814E-17
   64.15500        1.2981792E-17
   64.31650        1.2971680E-17
   64.47800        1.2981198E-17
   64.63950        1.3007697E-17
   64.80100        1.3039603E-17
   64.96250        1.3062692E-17
   65.12400        1.3067819E-17
   65.28550        1.3055852E-17
   65.44700        1.3037130E-17
   65.60850        1.3025741E-17
   65.77000        1.3031749E-17
   65.93150        1.3055621E-17
   66.09300        1.3087912E-17
   66.25450        1.3114385E-17
   66.41600        1.3123773E-17
   66.57750        1.3113929E-17
   66.73900        1.3092974E-17
   66.90050        1.3074789E-17
   67.06200        1.3071336E-17
   67.22350        1.3086051E-17
   67.38500        1.3111948E-17
   67.54650        1.3135498E-17
   67.70800        1.3144113E-17
   67.86950        1.3133132E-17
   68.03100        1.3108476E-17
   68.19250        1.3083522E-17
   68.35400        1.3071915E-17
   68.51550        1.3080278E-17
   68.67700        1.3104775E-17
   68.83850        1.3133391E-17
   69.00000        1.3152609E-17
   69.16150        1.3154796E-17
   69.32300        1.3142248E-17
   69.48450        1.3125728E-17
   69.64600        1.3118350E-17
   69.80750        1.3128171E-17
   69.96900        1.3153561E-17
   70.13050        1.3183878E-17
   70.29200        1.3205120E-17
   70.45350        1.3207475E-17
   70.61500        1.3190655E-17
   70.77650        1.3164123E-17
   70.93800        1.3142045E-17
   71.09950        1.3135749E-17
   71.26100        1.3147780E-17
   71.42250        1.3170776E-17
   71.58400        1.3191778E-17
   71.74550        1.3199573E-17
   71.90700        1.3191011E-17
   72.06850        1.3172787E-17
   72.23000        1.3157673E-17
   72.39150        1.3157299E-17
   72.55300        1.3175491E-17
   72.71450        1.3205938E-17
   72.87600        1.3235483E-17
   73.03750        1.3251230E-17
   73.19900        1.3247556E-17
   73.36050        1.3229125E-17
   73.52200        1.3208269E-17
   73.68350        1.3198186E-17
   73.84500        1.3205726E-17
   74.00650        1.3227755E-17
   74.16800        1.3253078E-17
   74.32950        1.3268808E-17
   74.49100        1.3267625E-17
   74.65250        1.3251868E-17
   74.81400        1.3232220E-17
   74.97550        1.3221742E-17
   75.13700        1.3228551E-17
   75.29850        1.3251217E-17
   75.46000        1.3279433E-17
   75.62150        1.3299611E-17
   75.78300        1.3302351E-17
   75.94450        1.3287637E-17
   76.10600        1.3264892E-17
   76.26750        1.3247800E-17
   76.42900        1.3246778E-17
   76.59050        1.3263227E-17
   76.75200        1.3288773E-17
   76.91350        1.3309928E-17
   77.07500        1.3315614E-17
   77.23650        1.3303376E-17
   77.39800        1.3280811E-17
   77.55950        1.3261367E-17
   77.72100        1.3256830E-17
   77.88250        1.3270681E-17
   78.04400        1.3296075E-17
   78.20550        1.3319600E-17
   78.36700        1.3328763E-17
   78.52850        1.3319034E-17
   78.69000        1.3296499E-17
   78.85150        1.3274621E-17
   79.01300        1.3266839E-17
   79.17450        1.3279116E-17
   79.33600        1.3306566E-17
   79.49750        1.3336072E-17
   79.65900        1.3353469E-17
   79.82050        1.3351303E-17
   79.98200        1.3332877E-17
   80.14350        1.3310343E-17
   80.30500        1.3297908E-17
   80.46650        1.3303941E-17
   80.62800        1.3326357E-17
   80.78950        1.3353837E-17
   80.95100        1.3372229E-17
   81.11250        1.3372576E-17
   81.27400        1.3356307E-17
   81.43550        1.3334699E-17
   81.59700        1.3322856E-17
   81.75850        1.3331487E-17
   81.92000        1.3361022E-17
   82.08150        1.3401261E-17
   82.24300        1.3436792E-17
   82.40450        1.3455205E-17
   82.56600        1.3453629E-17
   82.72750        1.3440017E-17
   82.88900        1.3428486E-17
   83.05050        1.3431274E-17
   83.21200        1.3451777E-17
   83.37350        1.3482525E-17
   83.53500        1.3509252E-17
   83.69650        1.3518836E-17
   83.85800        1.3506719E-17
   84.01950        1.3479658E-17
   84.18100        1.3452280E-17
   84.34250        1.3439248E-17
   84.50400        1.3447362E-17
   84.66550        1.3471940E-17
   84.82700        1.3499485E-17
   84.98850        1.3515153E-17
   85.15000        1.3510900E-17
   85.31150        1.3489776E-17
   85.47300        1.3464063E-17
   85.63450        1.3448321E-17
   85.79600        1.3451243E-17
   85.95750        1.3470847E-17
   86.11900        1.3495606E-17
   86.28050        1.3510876E-17
   86.44200        1.3507020E-17
   86.60350        1.3484745E-17
   86.76500        1.3454738E-17
   86.92650        1.3431830E-17
   87.08800        1.3426932E-17
   87.24950        1.3441151E-17
   87.41100        1.3465290E-17
   87.57250        1.3484942E-17
   87.73400        1.3488391E-17
   87.89550        1.3472978E-17
   88.05700        1.3446502E-17
   88.21850        1.3422896E-17
   88.38000        1.3414590E-17
   88.54150        1.3425746E-17
   88.70300        1.3450099E-17
   88.86450        1.3474544E-17
   89.02600        1.3486486E-17
   89.18750        1.3480860E-17
   89.34900        1.3462941E-17
   89.51050        1.3445377E-17
   89.67200        1.3441125E-17
   89.83350        1.3456199E-17
   89.99500        1.3486265E-17
   90.15650        1.3518970E-17
   90.31800        1.3540694E-17
   90.47950        1.3543954E-17
   90.64100        1.3531370E-17
   90.80250        1.3514027E-17
   90.96400        1.3505245E-17
   91.12550        1.3513217E-17
   91.28700        1.3536620E-17
   91.44850        1.3565550E-17
   91.61000        1.3587186E-17
   91.77150        1.3592965E-17
   91.93300        1.3583290E-17
   92.09450        1.3567181E-17
   92.25600        1.3557140E-17
   92.41750        1.3562119E-17
   92.57900        1.3582485E-17
   92.74050        1.3609776E-17
   92.90200        1.3631315E-17
   93.06350        1.3637152E-17
   93.22500        1.3625502E-17
   93.38650        1.3603718E-17
   93.54800        1.3584287E-17
   93.70950        1.3578079E-17
   93.87100        1.3588557E-17
   94.03250        1.3610120E-17
   94.19400        1.3631423E-17
   94.35550        1.3641837E-17
   94.51700        1.3637415E-17
   94.67850        1.3623076E-17
   94.84000        1.3609795E-17
   95.00150        1.3608364E-17
   95.16300        1.3623198E-17
   95.32450        1.3649631E-17
   95.48600        1.3676260E-17
   95.64750        1.3691044E-17
   95.80900        1.3687816E-17
   95.97050        1.3669615E-17
   96.13200        1.3646995E-17
   96.29350        1.3632236E-17
   96.45500        1.3632674E-17
   96.61650        1.3646808E-17
   96.77800        1.3665343E-17
   96.93950        1.3676539E-17
   97.10100        1.3672885E-17
   97.26250        1.3655404E-17
   97.42400        1.3633157E-17
   97.58550        1.3618288E-17
   97.74700        1.3619300E-17
   97.90850        1.3636325E-17
   98.07000        1.3660953E-17
   98.23150        1.3680764E-17
   98.39300        1.3686032E-17
   98.55450        1.3674999E-17
   98.71600        1.3654807E-17
   98.87750        1.3637634E-17
   99.03900        1.3634098E-17
   99.20050        1.3647535E-17
   99.36200        1.3672210E-17
   99.52350        1.3696440E-17
   99.68500        1.3708926E-17
   99.84650        1.3704868E-17
   100.0080        1.3688575E-17
   100.1695        1.3671111E-17
   100.3310        1.3664263E-17
   100.4925        1.3674073E-17
   100.6540        1.3697480E-17
   100.8155        1.3723905E-17
   100.9770        1.3740998E-17
   101.1385        1.3741391E-17
   101.3000        1.3726826E-17
   101.4615        1.3707319E-17
   101.6230        1.3695828E-17
   101.7845        1.3701251E-17
   101.9460        1.3723586E-17
   102.1075        1.3753894E-17
   102.2690        1.3779075E-17
   102.4305        1.3788873E-17
   102.5920        1.3781306E-17
   102.7535        1.3763576E-17
   102.9150        1.3748014E-17
   103.0765        1.3745277E-17
   103.2380        1.3758524E-17
   103.3995        1.3781688E-17
   103.5610        1.3802773E-17
   103.7225        1.3810384E-17
   103.8840        1.3799945E-17
   104.0455        1.3776266E-17
   104.2070        1.3751076E-17
   104.3685        1.3736826E-17
   104.5300        1.3740103E-17
   104.6915        1.3758144E-17
   104.8530        1.3780328E-17
   105.0145        1.3793864E-17
   105.1760        1.3790628E-17
   105.3375        1.3771504E-17
   105.4990        1.3745886E-17
   105.6605        1.3726586E-17
   105.8220        1.3722920E-17
   105.9835        1.3735674E-17
   106.1450        1.3756736E-17
   106.3065        1.3773590E-17
   106.4680        1.3776259E-17
   106.6295        1.3762897E-17
   106.7910        1.3740961E-17
   106.9525        1.3723275E-17
   107.1140        1.3721109E-17
   107.2755        1.3738018E-17
   107.4370        1.3767838E-17
   107.5985        1.3797921E-17
   107.7600        1.3815887E-17
   107.9215        1.3816188E-17
   108.0830        1.3802957E-17
   108.2445        1.3787580E-17
   108.4060        1.3782371E-17
   108.5675        1.3793784E-17
   108.7290        1.3818898E-17
   108.8905        1.3847042E-17
   109.0520        1.3865684E-17
   109.2135        1.3867341E-17
   109.3750        1.3853749E-17
   109.5365        1.3834982E-17
   109.6980        1.3824023E-17
   109.8595        1.3829715E-17
   110.0210        1.3851933E-17
   110.1825        1.3881596E-17
   110.3440        1.3905556E-17
   110.5055        1.3913724E-17
   110.6670        1.3904544E-17
   110.8285        1.3885838E-17
   110.9900        1.3870489E-17
   111.1515        1.3869341E-17
   111.3130        1.3885168E-17
   111.4745        1.3911100E-17
   111.6360        1.3934370E-17
   111.7975        1.3943398E-17
   111.9590        1.3934268E-17
   112.1205        1.3913011E-17
   112.2820        1.3892353E-17
   112.4435        1.3884700E-17
   112.6050        1.3895205E-17
   112.7665        1.3918847E-17
   112.9280        1.3943148E-17
   113.0895        1.3955078E-17
   113.2510        1.3948318E-17
   113.4125        1.3926816E-17
   113.5740        1.3902636E-17
   113.7355        1.3889266E-17
   113.8970        1.3894105E-17
   114.0585        1.3914293E-17
   114.2200        1.3938246E-17
   114.3815        1.3952070E-17
   114.5430        1.3947294E-17
   114.7045        1.3925642E-17
   114.8660        1.3898131E-17
   115.0275        1.3878984E-17
   115.1890        1.3877679E-17
   115.3505        1.3893589E-17
   115.5120        1.3916232E-17
   115.6735        1.3931040E-17
   115.8350        1.3927549E-17
   115.9965        1.3905439E-17
   116.1580        1.3874992E-17
   116.3195        1.3851629E-17
   116.4810        1.3847453E-17
   116.6425        1.3864490E-17
   116.8040        1.3893417E-17
   116.9655        1.3918629E-17
   117.1270        1.3926855E-17
   117.2885        1.3914612E-17
   117.4500        1.3890262E-17
   117.6115        1.3869412E-17
   117.7730        1.3866171E-17
   117.9345        1.3885057E-17
   118.0960        1.3918181E-17
   118.2575        1.3949377E-17
   118.4190        1.3963116E-17
   118.5805        1.3953251E-17
   118.7420        1.3926697E-17