  -27.90000       -2.5273906E-18
  -27.73850       -2.5321984E-18
  -27.57700       -2.5396416E-18
  -27.41550       -2.5466197E-18
  -27.25400       -2.5507231E-18
  -27.09250       -2.5514529E-18
  -26.93100       -2.5503945E-18
  -26.76950       -2.5502638E-18
  -26.60800       -2.5533459E-18
  -26.44650       -2.5601860E-18
  -26.28500       -2.5692389E-18
  -26.12350       -2.5776749E-18
  -25.96200       -2.5828930E-18
  -25.80050       -2.5839257E-18
  -25.63900       -2.5819583E-18
  -25.47750       -2.5796988E-18
  -25.31600       -2.5799236E-18
  -25.15450       -2.5840026E-18
  -24.99300       -2.5911941E-18
  -24.83150       -2.5990819E-18
  -24.67000       -2.6049042E-18
  -24.50850       -2.6070508E-18
  -24.34700       -2.6059186E-18
  -24.18550       -2.6036649E-18
  -24.02400       -2.6030141E-18
  -23.86250       -2.6057680E-18
  -23.70100       -2.6118389E-18
  -23.53950       -2.6193175E-18
  -23.37800       -2.6255267E-18
  -23.21650       -2.6284876E-18
  -23.05500       -2.6279826E-18
  -22.89350       -2.6256572E-18
  -22.73200       -2.6241075E-18
  -22.57050       -2.6254560E-18
  -22.40900       -2.6301998E-18
  -22.24750       -2.6369488E-18
  -22.08600       -2.6431926E-18
  -21.92450       -2.6466775E-18
  -21.76300       -2.6466303E-18
  -21.60150       -2.6441686E-18
  -21.44000       -2.6416774E-18
  -21.27850       -2.6415008E-18
  -21.11700       -2.6446703E-18
  -20.95550       -2.6503655E-18
  -20.79400       -2.6563989E-18
  -20.63250       -2.6604517E-18
  -20.47100       -2.6613628E-18
  -20.30950       -2.6597629E-18
  -20.14800       -2.6577013E-18
  -19.98650       -2.6574834E-18
  -19.82500       -2.6603646E-18
  -19.66350       -2.6658383E-18
  -19.50200       -2.6719061E-18
  -19.34050       -2.6761776E-18
  -19.17900       -2.6771876E-18
  -19.01750       -2.6751931E-18
  -18.85600       -2.6720223E-18
  -18.69450       -2.6700706E-18
  -18.53300       -2.6709958E-18
  -18.37150       -2.6748382E-18
  -18.21000       -2.6800491E-18
  -18.04850       -2.6843880E-18
  -17.88700       -2.6861882E-18
  -17.72550       -2.6852851E-18
  -17.56400       -2.6831011E-18
  -17.40250       -2.6818387E-18
  -17.24100       -2.6832416E-18
  -17.07950       -2.6875969E-18
  -16.91800       -2.6935321E-18
  -16.75650       -2.6987253E-18
  -16.59500       -2.7011492E-18
  -16.43350       -2.7001669E-18
  -16.27200       -2.6968880E-18
  -16.11050       -2.6935838E-18
  -15.94900       -2.6924700E-18
  -15.78750       -2.6945245E-18
  -15.62600       -2.6989853E-18
  -15.46450       -2.7038084E-18
  -15.30300       -2.7068437E-18
  -15.14150       -2.7070702E-18
  -14.98000       -2.7052138E-18
  -14.81850       -2.7033774E-18
  -14.65700       -2.7038839E-18
  -14.49550       -2.7079594E-18
  -14.33400       -2.7149923E-18
  -14.17250       -2.7227996E-18
  -14.01100       -2.7287559E-18
  -13.84950       -2.7311835E-18
  -13.68800       -2.7302211E-18
  -13.52650       -2.7277064E-18
  -13.36500       -2.7261303E-18
  -13.20350       -2.7272484E-18
  -13.04200       -2.7311134E-18
  -12.88050       -2.7360566E-18
  -12.71900       -2.7396267E-18
  -12.55750       -2.7399640E-18
  -12.39600       -2.7368480E-18
  -12.23450       -2.7318566E-18
  -12.07300       -2.7275505E-18
  -11.91150       -2.7261342E-18
  -11.75000       -2.7283111E-18
  -11.58850       -2.7329510E-18
  -11.42700       -2.7377321E-18
  -11.26550       -2.7404099E-18
  -11.10400       -2.7400428E-18
  -10.94250       -2.7375131E-18
  -10.78100       -2.7350653E-18
  -10.61950       -2.7351035E-18
  -10.45800       -2.7388885E-18
  -10.29650       -2.7458207E-18
  -10.13500       -2.7537134E-18
  -9.973500       -2.7599100E-18
  -9.812000       -2.7626573E-18
  -9.650500       -2.7620007E-18
  -9.489000       -2.7597171E-18
  -9.327500       -2.7583084E-18
  -9.166000       -2.7595996E-18
  -9.004500       -2.7637105E-18
  -8.843000       -2.7689726E-18
  -8.681500       -2.7728478E-18
  -8.520000       -2.7733503E-18
  -8.358500       -2.7701797E-18
  -8.197000       -2.7649364E-18
  -8.035500       -2.7603052E-18
  -7.874000       -2.7586511E-18
  -7.712500       -2.7607984E-18
  -7.551000       -2.7656587E-18
  -7.389500       -2.7708886E-18
  -7.228000       -2.7742054E-18
  -7.066500       -2.7746190E-18
  -6.905000       -2.7729193E-18
  -6.743500       -2.7711758E-18
  -6.582000       -2.7715551E-18
  -6.420500       -2.7751177E-18
  -6.259000       -2.7812434E-18
  -6.097500       -2.7879721E-18
  -5.936000       -2.7930572E-18
  -5.774500       -2.7951475E-18
  -5.613000       -2.7944812E-18
  -5.451500       -2.7927282E-18
  -5.290000       -2.7920830E-18
  -5.128500       -2.7940966E-18
  -4.967000       -2.7988651E-18
  -4.805500       -2.8049988E-18
  -4.644000       -2.8103765E-18
  -4.482500       -2.8132727E-18
  -4.321000       -2.8132621E-18
  -4.159500       -2.8114130E-18
  -3.998000       -2.8096660E-18
  -3.836500       -2.8097431E-18
  -3.675000       -2.8121759E-18
  -3.513500       -2.8160003E-18
  -3.352000       -2.8192950E-18
  -3.190500       -2.8202649E-18
  -3.029000       -2.8182707E-18
  -2.867500       -2.8142120E-18
  -2.706000       -2.8100556E-18
  -2.544500       -2.8077722E-18
  -2.383000       -2.8082792E-18
  -2.221500       -2.8109880E-18
  -2.060000       -2.8142022E-18
  -1.898500       -2.8161294E-18
  -1.737000       -2.8159255E-18
  -1.575500       -2.8141702E-18
  -1.414000       -2.8125187E-18
  -1.252500       -2.8127363E-18
  -1.091000       -2.8156835E-18
 -0.9295000       -2.8208230E-18
 -0.7680000       -2.8265082E-18
 -0.6065000       -2.8308881E-18
 -0.4450000       -2.8329048E-18
 -0.2835000       -2.8328388E-18
 -0.1220000       -2.8321150E-18
  3.9500002E-02   -2.8324895E-18
  0.2010000       -2.8350573E-18
  0.3625000       -2.8396316E-18
  0.5240000       -2.8448307E-18
  0.6855000       -2.8488102E-18
  0.8470000       -2.8502561E-18
   1.008500       -2.8491076E-18
   1.170000       -2.8466085E-18
   1.331500       -2.8446613E-18
   1.493000       -2.8448092E-18
   1.654500       -2.8473937E-18
   1.816000       -2.8513522E-18
   1.977500       -2.8547945E-18
   2.139000       -2.8560652E-18
   2.300500       -2.8547161E-18
   2.462000       -2.8518284E-18
   2.623500       -2.8494838E-18
   2.785000       -2.8496413E-18
   2.946500       -2.8530295E-18
   3.108000       -2.8586771E-18
   3.269500       -2.8643817E-18
   3.431000       -2.8678705E-18
   3.592500       -2.8680380E-18
   3.754000       -2.8655536E-18
   3.915500       -2.8624924E-18
   4.077000       -2.8611869E-18
   4.238500       -2.8629323E-18
   4.400000       -2.8672801E-18
   4.561500       -2.8723024E-18
   4.723000       -2.8756808E-18
   4.884500       -2.8760034E-18
   5.046000       -2.8735566E-18
   5.207500       -2.8701809E-18
   5.369000       -2.8682810E-18
   5.530500       -2.8695286E-18
   5.692000       -2.8739640E-18
   5.853500       -2.8799676E-18
   6.015000       -2.8851038E-18
   6.176500       -2.8873699E-18
   6.338000       -2.8862054E-18
   6.499500       -2.8827319E-18
   6.661000       -2.8791274E-18
   6.822500       -2.8774731E-18
   6.984000       -2.8786630E-18
   7.145500       -2.8819574E-18
   7.307000       -2.8854035E-18
   7.468500       -2.8869067E-18
   7.630000       -2.8853993E-18
   7.791500       -2.8814702E-18
   7.953000       -2.8771178E-18
   8.114500       -2.8747304E-18
   8.276000       -2.8758371E-18
   8.437500       -2.8802946E-18
   8.599000       -2.8863615E-18
   8.760500       -2.8916390E-18
   8.922000       -2.8943674E-18
   9.083500       -2.8943730E-18
   9.245000       -2.8931184E-18
   9.406500       -2.8928409E-18
   9.568000       -2.8952546E-18
   9.729500       -2.9005661E-18
   9.891000       -2.9073558E-18
   10.05250       -2.9133818E-18
   10.21400       -2.9168405E-18
   10.37550       -2.9173475E-18
   10.53700       -2.9161063E-18
   10.69850       -2.9151747E-18
   10.86000       -2.9162772E-18
   11.02150       -2.9198489E-18
   11.18300       -2.9248356E-18
   11.34450       -2.9293410E-18
   11.50600       -2.9317161E-18
   11.66750       -2.9314704E-18
   11.82900       -2.9295069E-18
   11.99050       -2.9275816E-18
   12.15200       -2.9273157E-18
   12.31350       -2.9293125E-18
   12.47500       -2.9328522E-18
   12.63650       -2.9363080E-18
   12.79800       -2.9380519E-18
   12.95950       -2.9373465E-18
   13.12100       -2.9347450E-18
   13.28250       -2.9317856E-18
   13.44400       -2.9301326E-18
   13.60550       -2.9306364E-18
   13.76700       -2.9328274E-18
   13.92850       -2.9351489E-18
   14.09000       -2.9358230E-18
   14.25150       -2.9338959E-18
   14.41300       -2.9298777E-18
   14.57450       -2.9255726E-18
   14.73600       -2.9231597E-18
   14.89750       -2.9240036E-18
   15.05900       -2.9278779E-18
   15.22050       -2.9330797E-18
   15.38200       -2.9373984E-18
   15.54350       -2.9394109E-18
   15.70500       -2.9393392E-18
   15.86650       -2.9389493E-18
   16.02800       -2.9405237E-18
   16.18950       -2.9454760E-18
   16.35100       -2.9534217E-18
   16.51250       -2.9622612E-18
   16.67400       -2.9692510E-18
   16.83550       -2.9724675E-18
   16.99700       -2.9718325E-18
   17.15850       -2.9691100E-18
   17.32000       -2.9668990E-18
   17.48150       -2.9671781E-18
   17.64300       -2.9702267E-18
   17.80450       -2.9745041E-18
   17.96600       -2.9775328E-18
   18.12750       -2.9772941E-18
   18.28900       -2.9733671E-18
   18.45050       -2.9672069E-18
   18.61200       -2.9614160E-18
   18.77350       -2.9583951E-18
   18.93500       -2.9590962E-18
   19.09650       -2.9625296E-18
   19.25800       -2.9662916E-18
   19.41950       -2.9678585E-18
   19.58100       -2.9659618E-18
   19.74250       -2.9613318E-18
   19.90400       -2.9563778E-18
   20.06550       -2.9539459E-18
   20.22700       -2.9557936E-18
   20.38850       -2.9615988E-18
   20.55000       -2.9690821E-18
   20.71150       -2.9752125E-18
   20.87300       -2.9778502E-18
   21.03450       -2.9769275E-18
   21.19600       -2.9744784E-18
   21.35750       -2.9734771E-18
   21.51900       -2.9761243E-18
   21.68050       -2.9825484E-18
   21.84200       -2.9906703E-18
   22.00350       -2.9973311E-18
   22.16500       -3.0000459E-18
   22.32650       -2.9983814E-18
   22.48800       -2.9941862E-18
   22.64950       -2.9905381E-18
   22.81100       -2.9900309E-18
   22.97250       -2.9933679E-18
   23.13400       -2.9990351E-18
   23.29550       -3.0042069E-18
   23.45700       -3.0063451E-18
   23.61850       -3.0045961E-18
   23.78000       -3.0002325E-18
   23.94150       -2.9959373E-18
   24.10300       -2.9943396E-18
   24.26450       -2.9966214E-18
   24.42600       -3.0019241E-18
   24.58750       -3.0078496E-18
   24.74900       -3.0117661E-18
   24.91050       -3.0122117E-18
   25.07200       -3.0096646E-18
   25.23350       -3.0062761E-18
   25.39500       -3.0047094E-18
   25.55650       -3.0066890E-18
   25.71800       -3.0120314E-18
   25.87950       -3.0186873E-18
   26.04100       -3.0238007E-18
   26.20250       -3.0252218E-18
   26.36400       -3.0226714E-18
   26.52550       -3.0178876E-18
   26.68700       -3.0136684E-18
   26.84850       -3.0123232E-18
   27.01000       -3.0143932E-18
   27.17150       -3.0183736E-18
   27.33300       -3.0216072E-18
   27.49450       -3.0218535E-18
   27.65600       -3.0186306E-18
   27.81750       -3.0135526E-18
   27.97900       -3.0094700E-18
   28.14050       -3.0088982E-18
   28.30200       -3.0126400E-18
   28.46350       -3.0193848E-18
   28.62500       -3.0264791E-18
   28.78650       -3.0314091E-18
   28.94800       -3.0331398E-18
   29.10950       -3.0325767E-18
   29.27100       -3.0319209E-18
   29.43250       -3.0333412E-18
   29.59400       -3.0377054E-18
   29.75550       -3.0440937E-18
   29.91700       -3.0503129E-18
   30.07850       -3.0540970E-18
   30.24000       -3.0543088E-18
   30.40150       -3.0515036E-18
   30.56300       -3.0475735E-18
   30.72450       -3.0446996E-18
   30.88600       -3.0441888E-18
   31.04750       -3.0458153E-18
   31.20900       -3.0480108E-18
   31.37050       -3.0488000E-18
   31.53200       -3.0469568E-18
   31.69350       -3.0427531E-18
   31.85500       -3.0378742E-18
   32.01650       -3.0345365E-18
   32.17800       -3.0342894E-18
   32.33950       -3.0371725E-18
   32.50100       -3.0417102E-18
   32.66250       -3.0457621E-18
   32.82400       -3.0477670E-18
   32.98550       -3.0476630E-18
   33.14700       -3.0469372E-18
   33.30850       -3.0477443E-18
   33.47000       -3.0515884E-18
   33.63150       -3.0583477E-18
   33.79300       -3.0662239E-18
   33.95450       -3.0726759E-18
   34.11600       -3.0758097E-18
   34.27750       -3.0754180E-18
   34.43900       -3.0730680E-18
   34.60050       -3.0711738E-18
   34.76200       -3.0715838E-18
   34.92350       -3.0744970E-18
   35.08500       -3.0783407E-18
   35.24650       -3.0806857E-18
   35.40800       -3.0796863E-18
   35.56950       -3.0752079E-18
   35.73100       -3.0690051E-18
   35.89250       -3.0638352E-18
   36.05400       -3.0620032E-18
   36.21550       -3.0641342E-18
   36.37700       -3.0688498E-18
   36.53850       -3.0735279E-18
   36.70000       -3.0757425E-18
   36.86150       -3.0746095E-18
   37.02300       -3.0713053E-18
   37.18450       -3.0684530E-18
   37.34600       -3.0687015E-18
   37.50750       -3.0732392E-18
   37.66900       -3.0810532E-18
   37.83050       -3.0893566E-18
   37.99200       -3.0949835E-18
   38.15350       -3.0960314E-18
   38.31500       -3.0928914E-18
   38.47650       -3.0880671E-18
   38.63800       -3.0848448E-18
   38.79950       -3.0854929E-18
   38.96100       -3.0899648E-18
   39.12250       -3.0958502E-18
   39.28400       -3.0996478E-18
   39.44550       -3.0986990E-18
   39.60700       -3.0927284E-18
   39.76850       -3.0841189E-18
   39.93000       -3.0767258E-18
   40.09150       -3.0738462E-18
   40.25300       -3.0764446E-18
   40.41450       -3.0826283E-18
   40.57600       -3.0887027E-18
   40.73750       -3.0912356E-18
   40.89900       -3.0889871E-18
   41.06050       -3.0836313E-18
   41.22200       -3.0788456E-18
   41.38350       -3.0782844E-18
   41.54500       -3.0835438E-18
   41.70650       -3.0932471E-18
   41.86800       -3.1037399E-18
   42.02950       -3.1110164E-18
   42.19100       -3.1128266E-18
   42.35250       -3.1098163E-18
   42.51400       -3.1051039E-18
   42.67550       -3.1025316E-18
   42.83700       -3.1045557E-18
   42.99850       -3.1109115E-18
   43.16000       -3.1187637E-18
   43.32150       -3.1242359E-18
   43.48300       -3.1245077E-18
   43.64450       -3.1193610E-18
   43.80600       -3.1113505E-18
   43.96750       -3.1044889E-18
   44.12900       -3.1021401E-18
   44.29050       -3.1052253E-18
   44.45200       -3.1117358E-18
   44.61350       -3.1178282E-18
   44.77500       -3.1199416E-18
   44.93650       -3.1167802E-18
   45.09800       -3.1100843E-18
   45.25950       -3.1037258E-18
   45.42100       -3.1016074E-18
   45.58250       -3.1055042E-18
   45.74400       -3.1140575E-18
   45.90550       -3.1235132E-18
   46.06700       -3.1298082E-18
   46.22850       -3.1308408E-18
   46.39000       -3.1276270E-18
   46.55150       -3.1236743E-18
   46.71300       -3.1229400E-18
   46.87450       -3.1275335E-18
   47.03600       -3.1364710E-18
   47.19750       -3.1461846E-18
   47.35900       -3.1524755E-18
   47.52050       -3.1528107E-18
   47.68200       -3.1476774E-18
   47.84350       -3.1402588E-18
   48.00500       -3.1346483E-18
   48.16650       -3.1336174E-18
   48.32800       -3.1371855E-18
   48.48950       -3.1427356E-18
   48.65100       -3.1465721E-18
   48.81250       -3.1460193E-18
   48.97400       -3.1409187E-18
   49.13550       -3.1337374E-18
   49.29700       -3.1282341E-18
   49.45850       -3.1274214E-18
   49.62000       -3.1319047E-18
   49.78150       -3.1395229E-18
   49.94300       -3.1464939E-18
   50.10450       -3.1494637E-18
   50.26600       -3.1473418E-18
   50.42750       -3.1419060E-18
   50.58900       -3.1368070E-18
   50.75050       -3.1355026E-18
   50.91200       -3.1392464E-18
   51.07350       -3.1463037E-18
   51.23500       -3.1528769E-18
   51.39650       -3.1552753E-18
   51.55800       -3.1520869E-18
   51.71950       -3.1450726E-18
   51.88100       -3.1382033E-18
   52.04250       -3.1353777E-18
   52.20400       -3.1381454E-18
   52.36550       -3.1447939E-18
   52.52700       -3.1513501E-18
   52.68850       -3.1539299E-18
   52.85000       -3.1510440E-18
   53.01150       -3.1445126E-18
   53.17300       -3.1384281E-18
   53.33450       -3.1367816E-18
   53.49600       -3.1411435E-18
   53.65750       -3.1497470E-18
   53.81900       -3.1585100E-18
   53.98050       -3.1633738E-18
   54.14200       -3.1626101E-18
   54.30350       -3.1577750E-18
   54.46500       -3.1527977E-18
   54.62650       -3.1517300E-18
   54.78800       -3.1564114E-18
   54.94950       -3.1653594E-18
   55.11100       -3.1745081E-18
   55.27250       -3.1794161E-18
   55.43400       -3.1777554E-18
   55.59550       -3.1706927E-18
   55.75700       -3.1623638E-18
   55.91850       -3.1576720E-18
   56.08000       -3.1595723E-18
   56.24150       -3.1673478E-18
   56.40300       -3.1768839E-18
   56.56450       -3.1828756E-18
   56.72600       -3.1818214E-18
   56.88750       -3.1741251E-18
   57.04900       -3.1640390E-18
   57.21050       -3.1573711E-18
   57.37200       -3.1581756E-18
   57.53350       -3.1663241E-18
   57.69500       -3.1774148E-18
   57.85650       -3.1851650E-18
   58.01800       -3.1849835E-18
   58.17950       -3.1766751E-18
   58.34100       -3.1646942E-18
   58.50250       -3.1557311E-18
   58.66400       -3.1549717E-18
   58.82550       -3.1631544E-18
   58.98700       -3.1761192E-18
   59.14850       -3.1871397E-18
   59.31000       -3.1907076E-18
   59.47150       -3.1856262E-18
   59.63300       -3.1756657E-18
   59.79450       -3.1674305E-18
   59.95600       -3.1666519E-18
   60.11750       -3.1749632E-18
   60.27900       -3.1889401E-18
   60.44050       -3.2019175E-18
   60.60200       -3.2075994E-18
   60.76350       -3.2034987E-18
   60.92500       -3.1923280E-18
   61.08650       -3.1805744E-18
   61.24800       -3.1750011E-18
   61.40950       -3.1789686E-18
   61.57100       -3.1905725E-18
   61.73250       -3.2036385E-18
   61.89400       -3.2110796E-18
   62.05550       -3.2088238E-18
   62.21700       -3.1981454E-18
   62.37850       -3.1850585E-18
   62.54000       -3.1770219E-18
   62.70150       -3.1787368E-18
   62.86300       -3.1894159E-18
   63.02450       -3.2031198E-18
   63.18600       -3.2120567E-18
   63.34750       -3.2110020E-18
   63.50900       -3.2003233E-18
   63.67050       -3.1858413E-18
   63.83200       -3.1755673E-18
   63.99350       -3.1751557E-18
   64.15500       -3.1846739E-18
   64.31650       -3.1985589E-18
   64.47800       -3.2088050E-18
   64.63950       -3.2095466E-18
   64.80100       -3.2003903E-18
   64.96250       -3.1866136E-18
   65.12400       -3.1761281E-18
   65.28550       -3.1750060E-18
   65.44700       -3.1840965E-18
   65.60850       -3.1986235E-18
   65.77000       -3.2109286E-18
   65.93150       -3.2147783E-18
   66.09300       -3.2088224E-18
   66.25450       -3.1972989E-18
   66.41600       -3.1876211E-18
   66.57750       -3.1862180E-18
   66.73900       -3.1949355E-18
   66.90050       -3.2099860E-18
   67.06200       -3.2240142E-18
   67.22350       -3.2301374E-18
   67.38500       -3.2257449E-18
   67.54650       -3.2139606E-18
   67.70800       -3.2019332E-18
   67.86950       -3.1968527E-18
   68.03100       -3.2018782E-18
   68.19250       -3.2142847E-18
   68.35400       -3.2269352E-18
   68.51550       -3.2323228E-18
   68.67700       -3.2269226E-18
   68.83850       -3.2133351E-18
   69.00000       -3.1989378E-18
   69.16150       -3.1917539E-18
   69.32300       -3.1958603E-18
   69.48450       -3.2090000E-18
   69.64600       -3.2238084E-18
   69.80750       -3.2320079E-18
   69.96900       -3.2291624E-18
   70.13050       -3.2172263E-18
   70.29200       -3.2033884E-18
   70.45350       -3.1958789E-18
   70.61500       -3.1991932E-18
   70.77650       -3.2115037E-18
   70.93800       -3.2257461E-18
   71.09950       -3.2337038E-18
   71.26100       -3.2307257E-18
   71.42250       -3.2183873E-18
   71.58400       -3.2036016E-18
   71.74550       -3.1947289E-18
   71.90700       -3.1968953E-18
   72.06850       -3.2091613E-18
   72.23000       -3.2251104E-18
   72.39150       -3.2364819E-18
   72.55300       -3.2377915E-18
   72.71450       -3.2293696E-18
   72.87600       -3.2171527E-18
   73.03750       -3.2093510E-18
   73.19900       -3.2118263E-18
   73.36050       -3.2247252E-18
   73.52200       -3.2422546E-18
   73.68350       -3.2557936E-18
   73.84500       -3.2586795E-18
   74.00650       -3.2500032E-18
   74.16800       -3.2352430E-18
   74.32950       -3.2232790E-18
   74.49100       -3.2214166E-18
   74.65250       -3.2311863E-18
   74.81400       -3.2473562E-18
   74.97550       -3.2607869E-18
   75.13700       -3.2635964E-18
   75.29850       -3.2537083E-18
   75.46000       -3.2361467E-18
   75.62150       -3.2202491E-18
   75.78300       -3.2143538E-18
   75.94450       -3.2210196E-18
   76.10600       -3.2355612E-18
   76.26750       -3.2487579E-18
   76.42900       -3.2521631E-18
   76.59050       -3.2429641E-18
   76.75200       -3.2256096E-18
   76.91350       -3.2093115E-18
   77.07500       -3.2028582E-18
   77.23650       -3.2096976E-18
   77.39800       -3.2260433E-18
   77.55950       -3.2430418E-18
   77.72100       -3.2517247E-18
   77.88250       -3.2479516E-18
   78.04400       -3.2346085E-18
   78.20550       -3.2199141E-18
   78.36700       -3.2128346E-18
   78.52850       -3.2181466E-18
   78.69000       -3.2338343E-18
   78.85150       -3.2522064E-18
   79.01300       -3.2641213E-18
   79.17450       -3.2640082E-18
   79.33600       -3.2529372E-18
   79.49750       -3.2380217E-18
   79.65900       -3.2284597E-18
   79.82050       -3.2303858E-18
   79.98200       -3.2433975E-18
   80.14350       -3.2607081E-18
   80.30500       -3.2728844E-18
   80.46650       -3.2731189E-18
   80.62800       -3.2610932E-18
   80.78950       -3.2432199E-18
   80.95100       -3.2290819E-18
   81.11250       -3.2260486E-18
   81.27400       -3.2351619E-18
   81.43550       -3.2506500E-18
   81.59700       -3.2633508E-18
   81.75850       -3.2660503E-18
   81.92000       -3.2576401E-18
   82.08150       -3.2437141E-18
   82.24300       -3.2332976E-18
   82.40450       -3.2336128E-18
   82.56600       -3.2459012E-18
   82.72750       -3.2646881E-18
   82.88900       -3.2808800E-18
   83.05050       -3.2868781E-18
   83.21200       -3.2807737E-18
   83.37350       -3.2672484E-18
   83.53500       -3.2547609E-18
   83.69650       -3.2506895E-18
   83.85800       -3.2572180E-18
   84.01950       -3.2702368E-18
   84.18100       -3.2818083E-18
   84.34250       -3.2847503E-18
   84.50400       -3.2767463E-18
   84.66550       -3.2616747E-18
   84.82700       -3.2474350E-18
   84.98850       -3.2415082E-18
   85.15000       -3.2467639E-18
   85.31150       -3.2598650E-18
   85.47300       -3.2731644E-18
   85.63450       -3.2790074E-18
   85.79600       -3.2740574E-18
   85.95750       -3.2612111E-18
   86.11900       -3.2480202E-18
   86.28050       -3.2424531E-18
   86.44200       -3.2483432E-18
   86.60350       -3.2631152E-18
   86.76500       -3.2791325E-18
   86.92650       -3.2879509E-18
   87.08800       -3.2850940E-18
   87.24950       -3.2726135E-18
   87.41100       -3.2579472E-18
   87.57250       -3.2496857E-18
   87.73400       -3.2526357E-18
   87.89550       -3.2650130E-18
   88.05700       -3.2794037E-18
   88.21850       -3.2870106E-18
   88.38000       -3.2827564E-18
   88.54150       -3.2682928E-18
   88.70300       -3.2511405E-18
   88.86450       -3.2404451E-18
   89.02600       -3.2418033E-18
   89.18750       -3.2541318E-18
   89.34900       -3.2703510E-18
   89.51050       -3.2814435E-18
   89.67200       -3.2815471E-18
   89.83350       -3.2711823E-18
   89.99500       -3.2568382E-18
   90.15650       -3.2471932E-18
   90.31800       -3.2481799E-18
   90.47950       -3.2596845E-18
   90.64100       -3.2756973E-18
   90.80250       -3.2877340E-18
   90.96400       -3.2895621E-18
   91.12550       -3.2805969E-18
   91.28700       -3.2661756E-18
   91.44850       -3.2546118E-18
   91.61000       -3.2526650E-18
   91.77150       -3.2618852E-18
   91.93300       -3.2777921E-18
   92.09450       -3.2923358E-18
   92.25600       -3.2983020E-18
   92.41750       -3.2932502E-18
   92.57900       -3.2808254E-18
   92.74050       -3.2687037E-18
   92.90200       -3.2642991E-18
   93.06350       -3.2705900E-18
   93.22500       -3.2844017E-18
   93.38650       -3.2981620E-18
   93.54800       -3.3041998E-18
   93.70950       -3.2991710E-18
   93.87100       -3.2860521E-18
   94.03250       -3.2724996E-18
   94.19400       -3.2664934E-18
   94.35550       -3.2717959E-18
   94.51700       -3.2858643E-18
   94.67850       -3.3014027E-18
   94.84000       -3.3105904E-18
   95.00150       -3.3095085E-18
   95.16300       -3.3002110E-18
   95.32450       -3.2893203E-18
   95.48600       -3.2840503E-18
   95.64750       -3.2880473E-18
   95.80900       -3.2994340E-18
   95.97050       -3.3120732E-18
   96.13200       -3.3191776E-18
   96.29350       -3.3170970E-18
   96.45500       -3.3071812E-18
   96.61650       -3.2948206E-18
   96.77800       -3.2863683E-18
   96.93950       -3.2857047E-18
   97.10100       -3.2922839E-18
   97.26250       -3.3016108E-18
   97.42400       -3.3077972E-18
   97.58550       -3.3067775E-18
   97.74700       -3.2984766E-18
   97.90850       -3.2868055E-18
   98.07000       -3.2775274E-18
   98.23150       -3.2751478E-18
   98.39300       -3.2804757E-18
   98.55450       -3.2901839E-18
   98.71600       -3.2986389E-18
   98.87750       -3.3010634E-18
   99.03900       -3.2962777E-18
   99.20050       -3.2874192E-18
   99.36200       -3.2801336E-18
   99.52350       -3.2792295E-18
   99.68500       -3.2857616E-18
   99.84650       -3.2963079E-18
   100.0080       -3.3049220E-18
   100.1695       -3.3066092E-18
   100.3310       -3.3002602E-18
   100.4925       -3.2892899E-18
   100.6540       -3.2796009E-18
   100.8155       -3.2761247E-18
   100.9770       -3.2800410E-18
   101.1385       -3.2883122E-18
   101.3000       -3.2957359E-18
   101.4615       -3.2981633E-18
   101.6230       -3.2948912E-18
   101.7845       -3.2888778E-18
   101.9460       -3.2848213E-18
   102.1075       -3.2863712E-18
   102.2690       -3.2941115E-18
   102.4305       -3.3053562E-18
   102.5920       -3.3156995E-18
   102.7535       -3.3213605E-18
   102.9150       -3.3210414E-18
   103.0765       -3.3164003E-18
   103.2380       -3.3110309E-18
   103.3995       -3.3085574E-18
   103.5610       -3.3108334E-18
   103.7225       -3.3170625E-18
   103.8840       -3.3242420E-18
   104.0455       -3.3287086E-18
   104.2070       -3.3280779E-18
   104.3685       -3.3226038E-18
   104.5300       -3.3151718E-18
   104.6915       -3.3097936E-18
   104.8530       -3.3093515E-18
   105.0145       -3.3138553E-18
   105.1760       -3.3203001E-18
   105.3375       -3.3243014E-18
   105.4990       -3.3226172E-18
   105.6605       -3.3150824E-18
   105.8220       -3.3047766E-18
   105.9835       -3.2963069E-18
   106.1450       -3.2932112E-18
   106.3065       -3.2960397E-18
   106.4680       -3.3022436E-18
   106.6295       -3.3078589E-18
   106.7910       -3.3098631E-18
   106.9525       -3.3077702E-18
   107.1140       -3.3036109E-18
   107.2755       -3.3005228E-18
   107.4370       -3.3009304E-18
   107.5985       -3.3053567E-18
   107.7600       -3.3123703E-18
   107.9215       -3.3194559E-18
   108.0830       -3.3242319E-18
   108.2445       -3.3254042E-18
   108.4060       -3.3231561E-18
   108.5675       -3.3189607E-18
   108.7290       -3.3149704E-18
   108.8905       -3.3131762E-18
   109.0520       -3.3145570E-18
   109.2135       -3.3185243E-18
   109.3750       -3.3230186E-18
   109.5365       -3.3254069E-18
   109.6980       -3.3238679E-18
   109.8595       -3.3185276E-18
   110.0210       -3.3116008E-18
   110.1825       -3.3063158E-18
   110.3440       -3.3051674E-18
   110.5055       -3.3085150E-18
   110.6670       -3.3143785E-18
   110.8285       -3.3195800E-18
   110.9900       -3.3215640E-18
   111.1515       -3.3198408E-18
   111.3130       -3.3162264E-18
   111.4745       -3.3137755E-18
   111.6360       -3.3150742E-18
   111.7975       -3.3208628E-18
   111.9590       -3.3296867E-18
   112.1205       -3.3386362E-18
   112.2820       -3.3446883E-18
   112.4435       -3.3460022E-18
   112.6050       -3.3426433E-18
   112.7665       -3.3365184E-18
   112.9280       -3.3305534E-18
   113.0895       -3.3273981E-18
   113.2510       -3.3281628E-18
   113.4125       -3.3317964E-18
   113.5740       -3.3355188E-18
   113.7355       -3.3362587E-18
   113.8970       -3.3324479E-18
   114.0585       -3.3251869E-18
   114.2200       -3.3179759E-18
   114.3815       -3.3149449E-18
   114.5430       -3.3184551E-18
   114.7045       -3.3274769E-18
   114.8660       -3.3378644E-18
   115.0275       -3.3445307E-18
   115.1890       -3.3443272E-18
   115.3505       -3.3378921E-18
   115.5120       -3.3293064E-18
   115.6735       -3.3237325E-18
   115.8350       -3.3244290E-18
   115.9965       -3.3309130E-18
   116.1580       -3.3393232E-18
   116.3195       -3.3447298E-18
   116.4810       -3.3439924E-18
   116.6425       -3.3375052E-18
   116.8040       -3.3288777E-18
   116.9655       -3.3228224E-18
   117.1270       -3.3225235E-18
   117.2885       -3.3279399E-18
   117.4500       -3.3358900E-18
   117.6115       -3.3417687E-18
   117.7730       -3.3419524E-18
   117.9345       -3.3356645E-18
   118.0960       -3.3253852E-18
   118.2575       -3.3156003E-18
   118.4190       -3.3104996E-18
   118.5805       -3.3117826E-18
   118.7420       -3.3177507E-18