  -27.90000        8.8284110E-18
  -27.73850        8.8534771E-18
  -27.57700        8.8947170E-18
  -27.41550        8.9386676E-18
  -27.25400        8.9729368E-18
  -27.09250        8.9912928E-18
  -26.93100        8.9959821E-18
  -26.76950        8.9962989E-18
  -26.60800        9.0040603E-18
  -26.44650        9.0280312E-18
  -26.28500        9.0697533E-18
  -26.12350        9.1226408E-18
  -25.96200        9.1747275E-18
  -25.80050        9.2138499E-18
  -25.63900        9.2329685E-18
  -25.47750        9.2332721E-18
  -25.31600        9.2236933E-18
  -25.15450        9.2170577E-18
  -24.99300        9.2245387E-18
  -24.83150        9.2508736E-18
  -24.67000        9.2924147E-18
  -24.50850        9.3388517E-18
  -24.34700        9.3778235E-18
  -24.18550        9.4003659E-18
  -24.02400        9.4047995E-18
  -23.86250        9.3973640E-18
  -23.70100        9.3893693E-18
  -23.53950        9.3921329E-18
  -23.37800        9.4119795E-18
  -23.21650        9.4475036E-18
  -23.05500        9.4902688E-18
  -22.89350        9.5286177E-18
  -22.73200        9.5528500E-18
  -22.57050        9.5594856E-18
  -22.40900        9.5527267E-18
  -22.24750        9.5425036E-18
  -22.08600        9.5400047E-18
  -21.92450        9.5527027E-18
  -21.76300        9.5810775E-18
  -21.60150        9.6184661E-18
  -21.44000        9.6540820E-18
  -21.27850        9.6778180E-18
  -21.11700        9.6847075E-18
  -20.95550        9.6770578E-18
  -20.79400        9.6633580E-18
  -20.63250        9.6544857E-18
  -20.47100        9.6589144E-18
  -20.30950        9.6790794E-18
  -20.14800        9.7104701E-18
  -19.98650        9.7438046E-18
  -19.82500        9.7692801E-18
  -19.66350        9.7809483E-18
  -19.50200        9.7792675E-18
  -19.34050        9.7707261E-18
  -19.17900        9.7647439E-18
  -19.01750        9.7693008E-18
  -18.85600        9.7872705E-18
  -18.69450        9.8151175E-18
  -18.53300        9.8445197E-18
  -18.37150        9.8661405E-18
  -18.21000        9.8738548E-18
  -18.04850        9.8674938E-18
  -17.88700        9.8529040E-18
  -17.72550        9.8393241E-18
  -17.56400        9.8352941E-18
  -17.40250        9.8449424E-18
  -17.24100        9.8663200E-18
  -17.07950        9.8924928E-18
  -16.91800        9.9148317E-18
  -16.75650        9.9269772E-18
  -16.59500        9.9276604E-18
  -16.43350        9.9211158E-18
  -16.27200        9.9149392E-18
  -16.11050        9.9164058E-18
  -15.94900        9.9289756E-18
  -15.78750        9.9505907E-18
  -15.62600        9.9745516E-18
  -15.46450        9.9925635E-18
  -15.30300        9.9985490E-18
  -15.14150        9.9914848E-18
  -14.98000        9.9759678E-18
  -14.81850        9.9602414E-18
  -14.65700        9.9526049E-18
  -14.49550        9.9578186E-18
  -14.33400        9.9751530E-18
  -14.17250        9.9989477E-18
  -14.01100        1.0021395E-17
  -13.84950        1.0036264E-17
  -13.68800        1.0041816E-17
  -13.52650        1.0041576E-17
  -13.36500        1.0042593E-17
  -13.20350        1.0051991E-17
  -13.04200        1.0073420E-17
  -12.88050        1.0105066E-17
  -12.71900        1.0140177E-17
  -12.55750        1.0169904E-17
  -12.39600        1.0187173E-17
  -12.23450        1.0189847E-17
  -12.07300        1.0181678E-17
  -11.91150        1.0170615E-17
  -11.75000        1.0165212E-17
  -11.58850        1.0170754E-17
  -11.42700        1.0186885E-17
  -11.26550        1.0207826E-17
  -11.10400        1.0225108E-17
  -10.94250        1.0231574E-17
  -10.78100        1.0224825E-17
  -10.61950        1.0208517E-17
  -10.45800        1.0190871E-17
  -10.29650        1.0181057E-17
  -10.13500        1.0185069E-17
  -9.973500        1.0202976E-17
  -9.812000        1.0228824E-17
  -9.650500        1.0253282E-17
  -9.489000        1.0267843E-17
  -9.327500        1.0268721E-17
  -9.166000        1.0258641E-17
  -9.004500        1.0245687E-17
  -8.843000        1.0239677E-17
  -8.681500        1.0247681E-17
  -8.520000        1.0270679E-17
  -8.358500        1.0302914E-17
  -8.197000        1.0334274E-17
  -8.035500        1.0354670E-17
  -7.874000        1.0358499E-17
  -7.712500        1.0347168E-17
  -7.551000        1.0328533E-17
  -7.389500        1.0313456E-17
  -7.228000        1.0311002E-17
  -7.066500        1.0324412E-17
  -6.905000        1.0349675E-17
  -6.743500        1.0377365E-17
  -6.582000        1.0396966E-17
  -6.420500        1.0401740E-17
  -6.259000        1.0391968E-17
  -6.097500        1.0375051E-17
  -5.936000        1.0362387E-17
  -5.774500        1.0364365E-17
  -5.613000        1.0385690E-17
  -5.451500        1.0423141E-17
  -5.290000        1.0466779E-17
  -5.128500        1.0504130E-17
  -4.967000        1.0525513E-17
  -4.805500        1.0528165E-17
  -4.644000        1.0517348E-17
  -4.482500        1.0503925E-17
  -4.321000        1.0499482E-17
  -4.159500        1.0511147E-17
  -3.998000        1.0538412E-17
  -3.836500        1.0573377E-17
  -3.675000        1.0604316E-17
  -3.513500        1.0620993E-17
  -3.352000        1.0619360E-17
  -3.190500        1.0603539E-17
  -3.029000        1.0584179E-17
  -2.867500        1.0573869E-17
  -2.706000        1.0581630E-17
  -2.544500        1.0608902E-17
  -2.383000        1.0648810E-17
  -2.221500        1.0689055E-17
  -2.060000        1.0717189E-17
  -1.898500        1.0725958E-17
  -1.737000        1.0716376E-17
  -1.575500        1.0697168E-17
  -1.414000        1.0680856E-17
  -1.252500        1.0678195E-17
  -1.091000        1.0693423E-17
 -0.9295000        1.0722426E-17
 -0.7680000        1.0754628E-17
 -0.6065000        1.0777747E-17
 -0.4450000        1.0783335E-17
 -0.2835000        1.0770600E-17
 -0.1220000        1.0746860E-17
  3.9500002E-02    1.0724378E-17
  0.2010000        1.0715006E-17
  0.3625000        1.0724997E-17
  0.5240000        1.0752267E-17
  0.6855000        1.0787320E-17
  0.8470000        1.0817426E-17
   1.008500        1.0832175E-17
   1.170000        1.0828002E-17
   1.331500        1.0809655E-17
   1.493000        1.0788020E-17
   1.654500        1.0775265E-17
   1.816000        1.0779470E-17
   1.977500        1.0801110E-17
   2.139000        1.0832924E-17
   2.300500        1.0863193E-17
   2.462000        1.0880956E-17
   2.623500        1.0880836E-17
   2.785000        1.0865361E-17
   2.946500        1.0843763E-17
   3.108000        1.0827836E-17
   3.269500        1.0826695E-17
   3.431000        1.0842769E-17
   3.592500        1.0870786E-17
   3.754000        1.0900180E-17
   3.915500        1.0919821E-17
   4.077000        1.0922967E-17
   4.238500        1.0910229E-17
   4.400000        1.0889276E-17
   4.561500        1.0871425E-17
   4.723000        1.0866655E-17
   4.884500        1.0879270E-17
   5.046000        1.0906105E-17
   5.207500        1.0938043E-17
   5.369000        1.0964123E-17
   5.530500        1.0976372E-17
   5.692000        1.0973224E-17
   5.853500        1.0960022E-17
   6.015000        1.0946426E-17
   6.176500        1.0941965E-17
   6.338000        1.0951720E-17
   6.499500        1.0974105E-17
   6.661000        1.1001692E-17
   6.822500        1.1024667E-17
   6.984000        1.1035338E-17
   7.145500        1.1031647E-17
   7.307000        1.1018129E-17
   7.468500        1.1003914E-17
   7.630000        1.0998705E-17
   7.791500        1.1008553E-17
   7.953000        1.1033307E-17
   8.114500        1.1066842E-17
   8.276000        1.1099903E-17
   8.437500        1.1124249E-17
   8.599000        1.1136206E-17
   8.760500        1.1138058E-17
   8.922000        1.1136705E-17
   9.083500        1.1140246E-17
   9.245000        1.1154093E-17
   9.406500        1.1178385E-17
   9.568000        1.1207877E-17
   9.729500        1.1234320E-17
   9.891000        1.1250222E-17
   10.05250        1.1252275E-17
   10.21400        1.1242869E-17
   10.37550        1.1229025E-17
   10.53700        1.1219258E-17
   10.69850        1.1219807E-17
   10.86000        1.1231941E-17
   11.02150        1.1251575E-17
   11.18300        1.1271303E-17
   11.34450        1.1283921E-17
   11.50600        1.1285768E-17
   11.66750        1.1278383E-17
   11.82900        1.1267704E-17
   11.99050        1.1261234E-17
   12.15200        1.1264492E-17
   12.31350        1.1278401E-17
   12.47500        1.1298848E-17
   12.63650        1.1318576E-17
   12.79800        1.1330554E-17
   12.95950        1.1331235E-17
   13.12100        1.1322206E-17
   13.28250        1.1309465E-17
   13.44400        1.1300650E-17
   13.60550        1.1301523E-17
   13.76700        1.1313298E-17
   13.92850        1.1332086E-17
   14.09000        1.1350683E-17
   14.25150        1.1361913E-17
   14.41300        1.1361964E-17
   14.57450        1.1352204E-17
   14.73600        1.1338618E-17
   14.89750        1.1329124E-17
   15.05900        1.1329972E-17
   15.22050        1.1342893E-17
   15.38200        1.1364315E-17
   15.54350        1.1387016E-17
   15.70500        1.1403487E-17
   15.86650        1.1409453E-17
   16.02800        1.1405941E-17
   16.18950        1.1398894E-17
   16.35100        1.1396473E-17
   16.51250        1.1405266E-17
   16.67400        1.1427105E-17
   16.83550        1.1458013E-17
   16.99700        1.1489772E-17
   17.15850        1.1513474E-17
   17.32000        1.1523442E-17
   17.48150        1.1519757E-17
   17.64300        1.1508217E-17
   17.80450        1.1497707E-17
   17.96600        1.1496170E-17
   18.12750        1.1506992E-17
   18.28900        1.1527450E-17
   18.45050        1.1549963E-17
   18.61200        1.1565580E-17
   18.77350        1.1568157E-17
   18.93500        1.1557300E-17
   19.09650        1.1538729E-17
   19.25800        1.1521861E-17
   19.41950        1.1515663E-17
   19.58100        1.1524633E-17
   19.74250        1.1546708E-17
   19.90400        1.1574093E-17
   20.06550        1.1596635E-17
   20.22700        1.1606308E-17
   20.38850        1.1600799E-17
   20.55000        1.1584590E-17
   20.71150        1.1567028E-17
   20.87300        1.1558229E-17
   21.03450        1.1564597E-17
   21.19600        1.1585971E-17
   21.35750        1.1615666E-17
   21.51900        1.1643423E-17
   21.68050        1.1659982E-17
   21.84200        1.1661224E-17
   22.00350        1.1650066E-17
   22.16500        1.1635194E-17
   22.32650        1.1627206E-17
   22.48800        1.1633831E-17
   22.64950        1.1656382E-17
   22.81100        1.1689022E-17
   22.97250        1.1721218E-17
   23.13400        1.1742299E-17
   23.29550        1.1746124E-17
   23.45700        1.1733789E-17
   23.61850        1.1713155E-17
   23.78000        1.1695408E-17
   23.94150        1.1690163E-17
   24.10300        1.1701280E-17
   24.26450        1.1725232E-17
   24.42600        1.1752758E-17
   24.58750        1.1773032E-17
   24.74900        1.1778516E-17
   24.91050        1.1768343E-17
   25.07200        1.1748728E-17
   25.23350        1.1730242E-17
   25.39500        1.1723163E-17
   25.55650        1.1732950E-17
   25.71800        1.1757824E-17
   25.87950        1.1789541E-17
   26.04100        1.1816978E-17
   26.20250        1.1830988E-17
   26.36400        1.1828373E-17
   26.52550        1.1813248E-17
   26.68700        1.1795210E-17
   26.84850        1.1785118E-17
   27.01000        1.1790340E-17
   27.17150        1.1811542E-17
   27.33300        1.1842441E-17
   27.49450        1.1872576E-17
   27.65600        1.1891904E-17
   27.81750        1.1895168E-17
   27.97900        1.1884145E-17
   28.14050        1.1866770E-17
   28.30200        1.1853571E-17
   28.46350        1.1852991E-17
   28.62500        1.1867683E-17
   28.78650        1.1893402E-17
   28.94800        1.1920977E-17
   29.10950        1.1940444E-17
   29.27100        1.1945506E-17
   29.43250        1.1936335E-17
   29.59400        1.1919484E-17
   29.75550        1.1904982E-17
   29.91700        1.1901916E-17
   30.07850        1.1914470E-17
   30.24000        1.1940154E-17
   30.40150        1.1970974E-17
   30.56300        1.1996983E-17
   30.72450        1.2010610E-17
   30.88600        1.2009840E-17
   31.04750        1.1998902E-17
   31.20900        1.1986189E-17
   31.37050        1.1980398E-17
   31.53200        1.1986643E-17
   31.69350        1.2004227E-17
   31.85500        1.2027062E-17
   32.01650        1.2046470E-17
   32.17800        1.2055099E-17
   32.33950        1.2050201E-17
   32.50100        1.2034822E-17
   32.66250        1.2016426E-17
   32.82400        1.2003590E-17
   32.98550        1.2002265E-17
   33.14700        1.2013269E-17
   33.30850        1.2032085E-17
   33.47000        1.2051023E-17
   33.63150        1.2062729E-17
   33.79300        1.2063466E-17
   33.95450        1.2054697E-17
   34.11600        1.2042315E-17
   34.27750        1.2033874E-17
   34.43900        1.2035159E-17
   34.60050        1.2047598E-17
   34.76200        1.2067713E-17
   34.92350        1.2088793E-17
   35.08500        1.2103997E-17
   35.24650        1.2109447E-17
   35.40800        1.2105900E-17
   35.56950        1.2098282E-17
   35.73100        1.2093317E-17
   35.89250        1.2096386E-17
   36.05400        1.2109073E-17
   36.21550        1.2128484E-17
   36.37700        1.2148639E-17
   36.53850        1.2163244E-17
   36.70000        1.2168557E-17
   36.86150        1.2165021E-17
   37.02300        1.2156959E-17
   37.18450        1.2150508E-17
   37.34600        1.2150770E-17
   37.50750        1.2159521E-17
   37.66900        1.2174496E-17
   37.83050        1.2190566E-17
   37.99200        1.2202222E-17
   38.15350        1.2206191E-17
   38.31500        1.2202974E-17
   38.47650        1.2196590E-17
   38.63800        1.2192666E-17
   38.79950        1.2195766E-17
   38.96100        1.2207219E-17
   39.12250        1.2224447E-17
   39.28400        1.2242134E-17
   39.44550        1.2254658E-17
   39.60700        1.2258690E-17
   39.76850        1.2254735E-17
   39.93000        1.2246875E-17
   40.09150        1.2240850E-17
   40.25300        1.2241359E-17
   40.41450        1.2249838E-17
   40.57600        1.2263793E-17
   40.73750        1.2277986E-17
   40.89900        1.2286957E-17
   41.06050        1.2287676E-17
   41.22200        1.2281079E-17
   41.38350        1.2271739E-17
   41.54500        1.2265792E-17
   41.70650        1.2268081E-17
   41.86800        1.2279840E-17
   42.02950        1.2298021E-17
   42.19100        1.2316615E-17
   42.35250        1.2329378E-17
   42.51400        1.2332711E-17
   42.67550        1.2327357E-17
   42.83700        1.2318105E-17
   42.99850        1.2311617E-17
   43.16000        1.2313358E-17
   43.32150        1.2325042E-17
   43.48300        1.2343775E-17
   43.64450        1.2363319E-17
   43.80600        1.2376925E-17
   43.96750        1.2380448E-17
   44.12900        1.2374316E-17
   44.29050        1.2363437E-17
   44.45200        1.2355032E-17
   44.61350        1.2355365E-17
   44.77500        1.2366845E-17
   44.93650        1.2386827E-17
   45.09800        1.2408699E-17
   45.25950        1.2424805E-17
   45.42100        1.2429895E-17
   45.58250        1.2423565E-17
   45.74400        1.2410527E-17
   45.90550        1.2398578E-17
   46.06700        1.2395116E-17
   46.22850        1.2403790E-17
   46.39000        1.2422782E-17
   46.55150        1.2445548E-17
   46.71300        1.2463709E-17
   46.87450        1.2470819E-17
   47.03600        1.2465296E-17
   47.19750        1.2451202E-17
   47.35900        1.2436463E-17
   47.52050        1.2429324E-17
   47.68200        1.2434628E-17
   47.84350        1.2451585E-17
   48.00500        1.2474074E-17
   48.16650        1.2493349E-17
   48.32800        1.2501963E-17
   48.48950        1.2497141E-17
   48.65100        1.2482094E-17
   48.81250        1.2464660E-17
   48.97400        1.2453874E-17
   49.13550        1.2455994E-17
   49.29700        1.2471737E-17
   49.45850        1.2495972E-17
   49.62000        1.2519988E-17
   49.78150        1.2535345E-17
   49.94300        1.2537587E-17
   50.10450        1.2528189E-17
   50.26600        1.2513857E-17
   50.42750        1.2503512E-17
   50.58900        1.2504288E-17
   50.75050        1.2518331E-17
   50.91200        1.2541808E-17
   51.07350        1.2566587E-17
   51.23500        1.2583825E-17
   51.39650        1.2587879E-17
   51.55800        1.2578817E-17
   51.71950        1.2562393E-17
   51.88100        1.2547509E-17
   52.04250        1.2542288E-17
   52.20400        1.2550500E-17
   52.36550        1.2569932E-17
   52.52700        1.2593406E-17
   52.68850        1.2612009E-17
   52.85000        1.2619051E-17
   53.01150        1.2613010E-17
   53.17300        1.2598144E-17
   53.33450        1.2582533E-17
   53.49600        1.2574454E-17
   53.65750        1.2578709E-17
   53.81900        1.2594553E-17
   53.98050        1.2616124E-17
   54.14200        1.2635131E-17
   54.30350        1.2644584E-17
   54.46500        1.2641880E-17
   54.62650        1.2629896E-17
   54.78800        1.2615638E-17
   54.94950        1.2607091E-17
   55.11100        1.2609712E-17
   55.27250        1.2624088E-17
   55.43400        1.2645800E-17
   55.59550        1.2667455E-17
   55.75700        1.2681975E-17
   55.91850        1.2685653E-17
   56.08000        1.2679650E-17
   56.24150        1.2669307E-17
   56.40300        1.2661650E-17
   56.56450        1.2662219E-17
   56.72600        1.2672634E-17
   56.88750        1.2689980E-17
   57.04900        1.2708201E-17
   57.21050        1.2720869E-17
   57.37200        1.2724045E-17
   57.53350        1.2717966E-17
   57.69500        1.2706841E-17
   57.85650        1.2696877E-17
   58.01800        1.2693484E-17
   58.17950        1.2698912E-17
   58.34100        1.2711385E-17
   58.50250        1.2726054E-17
   58.66400        1.2737309E-17
   58.82550        1.2741352E-17
   58.98700        1.2737851E-17
   59.14850        1.2729977E-17
   59.31000        1.2722858E-17
   59.47150        1.2721214E-17
   59.63300        1.2727280E-17
   59.79450        1.2739932E-17
   59.95600        1.2755362E-17
   60.11750        1.2768903E-17
   60.27900        1.2777137E-17
   60.44050        1.2779303E-17
   60.60200        1.2777406E-17
   60.76350        1.2775071E-17
   60.92500        1.2775720E-17
   61.08650        1.2780958E-17
   61.24800        1.2789894E-17
   61.40950        1.2799651E-17
   61.57100        1.2806777E-17
   61.73250        1.2808855E-17
   61.89400        1.2805584E-17
   62.05550        1.2798857E-17
   62.21700        1.2791840E-17
   62.37850        1.2787539E-17
   62.54000        1.2787509E-17
   62.70150        1.2791318E-17
   62.86300        1.2796947E-17
   63.02450        1.2801917E-17
   63.18600        1.2804571E-17
   63.34750        1.2804891E-17
   63.50900        1.2804474E-17
   63.67050        1.2805691E-17
   63.83200        1.2810466E-17
   63.99350        1.2819257E-17
   64.15500        1.2830768E-17
   64.31650        1.2842500E-17
   64.47800        1.2851907E-17
   64.63950        1.2857561E-17
   64.80100        1.2859773E-17
   64.96250        1.2860357E-17
   65.12400        1.2861662E-17
   65.28550        1.2865359E-17
   65.44700        1.2871587E-17
   65.60850        1.2878883E-17
   65.77000        1.2884922E-17
   65.93150        1.2887710E-17
   66.09300        1.2886619E-17
   66.25450        1.2882761E-17
   66.41600        1.2878513E-17
   66.57750        1.2876410E-17
   66.73900        1.2877961E-17
   66.90050        1.2882956E-17
   67.06200        1.2889585E-17
   67.22350        1.2895335E-17
   67.38500        1.2898220E-17
   67.54650        1.2897757E-17
   67.70800        1.2895248E-17
   67.86950        1.2893214E-17
   68.03100        1.2894254E-17
   68.19250        1.2899844E-17
   68.35400        1.2909628E-17
   68.51550        1.2921525E-17
   68.67700        1.2932600E-17
   68.83850        1.2940325E-17
   69.00000        1.2943668E-17
   69.16150        1.2943510E-17
   69.32300        1.2942227E-17
   69.48450        1.2942591E-17
   69.64600        1.2946521E-17
   69.80750        1.2954199E-17
   69.96900        1.2963990E-17
   70.13050        1.2973177E-17
   70.29200        1.2979212E-17
   70.45350        1.2980887E-17
   70.61500        1.2978929E-17
   70.77650        1.2975719E-17
   70.93800        1.2974268E-17
   71.09950        1.2976909E-17
   71.26100        1.2984290E-17
   71.42250        1.2995110E-17
   71.58400        1.3006698E-17
   71.74550        1.3016169E-17
   71.90700        1.3021632E-17
   72.06850        1.3022924E-17
   72.23000        1.3021584E-17
   72.39150        1.3020098E-17
   72.55300        1.3020795E-17
   72.71450        1.3024850E-17
   72.87600        1.3031829E-17
   73.03750        1.3039925E-17
   73.19900        1.3046734E-17
   73.36050        1.3050263E-17
   73.52200        1.3049729E-17
   73.68350        1.3045854E-17
   73.84500        1.3040578E-17
   74.00650        1.3036296E-17
   74.16800        1.3034949E-17
   74.32950        1.3037284E-17
   74.49100        1.3042574E-17
   74.65250        1.3048902E-17
   74.81400        1.3053910E-17
   74.97550        1.3055715E-17
   75.13700        1.3053679E-17
   75.29850        1.3048691E-17
   75.46000        1.3042868E-17
   75.62150        1.3038747E-17
   75.78300        1.3038287E-17
   75.94450        1.3042089E-17
   76.10600        1.3049130E-17
   76.26750        1.3057163E-17
   76.42900        1.3063620E-17
   76.59050        1.3066669E-17
   76.75200        1.3065987E-17
   76.91350        1.3062928E-17
   77.07500        1.3059997E-17
   77.23650        1.3059826E-17
   77.39800        1.3064069E-17
   77.55950        1.3072657E-17
   77.72100        1.3083742E-17
   77.88250        1.3094371E-17
   78.04400        1.3101648E-17
   78.20550        1.3103937E-17
   78.36700        1.3101600E-17
   78.52850        1.3096942E-17
   78.69000        1.3093343E-17
   78.85150        1.3093884E-17
   79.01300        1.3100026E-17
   79.17450        1.3110919E-17
   79.33600        1.3123656E-17
   79.49750        1.3134449E-17
   79.65900        1.3140252E-17
   79.82050        1.3140133E-17
   79.98200        1.3135789E-17
   80.14350        1.3130904E-17
   80.30500        1.3129580E-17
   80.46650        1.3134510E-17
   80.62800        1.3145701E-17
   80.78950        1.3160356E-17
   80.95100        1.3174028E-17
   81.11250        1.3182555E-17
   81.27400        1.3183934E-17
   81.43550        1.3179288E-17
   81.59700        1.3172444E-17
   81.75850        1.3168298E-17
   81.92000        1.3170652E-17
   82.08150        1.3180513E-17
   82.24300        1.3195606E-17
   82.40450        1.3211337E-17
   82.56600        1.3222809E-17
   82.72750        1.3226987E-17
   82.88900        1.3224052E-17
   83.05050        1.3217322E-17
   83.21200        1.3211775E-17
   83.37350        1.3211811E-17
   83.53500        1.3219263E-17
   83.69650        1.3232536E-17
   83.85800        1.3247290E-17
   84.01950        1.3258370E-17
   84.18100        1.3262136E-17
   84.34250        1.3258140E-17
   84.50400        1.3249379E-17
   84.66550        1.3240984E-17
   84.82700        1.3237931E-17
   84.98850        1.3242782E-17
   85.15000        1.3254518E-17
   85.31150        1.3268976E-17
   85.47300        1.3280719E-17
   85.63450        1.3285478E-17
   85.79600        1.3282043E-17
   85.95750        1.3272737E-17
   86.11900        1.3262254E-17
   86.28050        1.3255429E-17
   86.44200        1.3254978E-17
   86.60350        1.3260285E-17
   86.76500        1.3267778E-17
   86.92650        1.3272700E-17
   87.08800        1.3271431E-17
   87.24950        1.3263235E-17
   87.41100        1.3250629E-17
   87.57250        1.3238239E-17
   87.73400        1.3230689E-17
   87.89550        1.3230532E-17
   88.05700        1.3237200E-17
   88.21850        1.3247421E-17
   88.38000        1.3256858E-17
   88.54150        1.3262178E-17
   88.70300        1.3262554E-17
   88.86450        1.3259927E-17
   89.02600        1.3257946E-17
   89.18750        1.3260134E-17
   89.34900        1.3268169E-17
   89.51050        1.3281100E-17
   89.67200        1.3295835E-17
   89.83350        1.3308630E-17
   89.99500        1.3316850E-17
   90.15650        1.3320140E-17
   90.31800        1.3320462E-17
   90.47950        1.3321003E-17
   90.64100        1.3324492E-17
   90.80250        1.3331797E-17
   90.96400        1.3341452E-17
   91.12550        1.3350384E-17
   91.28700        1.3355455E-17
   91.44850        1.3355056E-17
   91.61000        1.3349966E-17
   91.77150        1.3343025E-17
   91.93300        1.3337789E-17
   92.09450        1.3336843E-17
   92.25600        1.3340595E-17
   92.41750        1.3347194E-17
   92.57900        1.3353603E-17
   92.74050        1.3357288E-17
   92.90200        1.3357665E-17
   93.06350        1.3356537E-17
   93.22500        1.3357255E-17
   93.38650        1.3363013E-17
   93.54800        1.3375100E-17
   93.70950        1.3392025E-17
   93.87100        1.3409988E-17
   94.03250        1.3424512E-17
   94.19400        1.3432471E-17
   94.35550        1.3433516E-17
   94.51700        1.3430190E-17
   94.67850        1.3426645E-17
   94.84000        1.3426553E-17
   95.00150        1.3431251E-17
   95.16300        1.3439007E-17
   95.32450        1.3445842E-17
   95.48600        1.3447497E-17
   95.64750        1.3441654E-17
   95.80900        1.3429294E-17
   95.97050        1.3414508E-17
   96.13200        1.3402798E-17
   96.29350        1.3398619E-17
   96.45500        1.3403315E-17
   96.61650        1.3414454E-17
   96.77800        1.3426910E-17
   96.93950        1.3435246E-17
   97.10100        1.3436288E-17
   97.26250        1.3430690E-17
   97.42400        1.3422705E-17
   97.58550        1.3418231E-17
   97.74700        1.3421998E-17
   97.90850        1.3435238E-17
   98.07000        1.3454917E-17
   98.23150        1.3474967E-17
   98.39300        1.3488977E-17
   98.55450        1.3493101E-17
   98.71600        1.3487833E-17
   98.87750        1.3477776E-17
   99.03900        1.3469498E-17
   99.20050        1.3468444E-17
   99.36200        1.3476342E-17
   99.52350        1.3490346E-17
   99.68500        1.3504331E-17
   99.84650        1.3511745E-17
   100.0080        1.3508716E-17
   100.1695        1.3495950E-17
   100.3310        1.3478537E-17
   100.4925        1.3463729E-17
   100.6540        1.3457726E-17
   100.8155        1.3462924E-17
   100.9770        1.3476910E-17
   101.1385        1.3493639E-17
   101.3000        1.3506236E-17
   101.4615        1.3510158E-17
   101.6230        1.3505222E-17
   101.7845        1.3495609E-17
   101.9460        1.3487857E-17
   102.1075        1.3487766E-17
   102.2690        1.3497669E-17
   102.4305        1.3515297E-17
   102.5920        1.3534768E-17
   102.7535        1.3549238E-17
   102.9150        1.3553995E-17
   103.0765        1.3548575E-17
   103.2380        1.3536943E-17
   103.3995        1.3525655E-17
   103.5610        1.3520874E-17
   103.7225        1.3525602E-17
   103.8840        1.3538391E-17
   104.0455        1.3554111E-17
   104.2070        1.3566385E-17
   104.3685        1.3570534E-17
   104.5300        1.3565678E-17
   104.6915        1.3555035E-17
   104.8530        1.3544321E-17
   105.0145        1.3539028E-17
   105.1760        1.3541900E-17
   105.3375        1.3551735E-17
   105.4990        1.3564068E-17
   105.6605        1.3573357E-17
   105.8220        1.3575596E-17
   105.9835        1.3570153E-17
   106.1450        1.3560007E-17
   106.3065        1.3550315E-17
   106.4680        1.3546045E-17
   106.6295        1.3549778E-17
   106.7910        1.3560689E-17
   106.9525        1.3575102E-17
   107.1140        1.3588308E-17
   107.2755        1.3596747E-17
   107.4370        1.3599545E-17
   107.5985        1.3598708E-17
   107.7600        1.3597978E-17
   107.9215        1.3600904E-17
   108.0830        1.3609084E-17
   108.2445        1.3621377E-17
   108.4060        1.3634435E-17
   108.5675        1.3644261E-17
   108.7290        1.3648047E-17
   108.8905        1.3645420E-17
   109.0520        1.3638529E-17
   109.2135        1.3630961E-17
   109.3750        1.3626044E-17
   109.5365        1.3625350E-17
   109.6980        1.3628107E-17
   109.8595        1.3631779E-17
   110.0210        1.3633491E-17
   110.1825        1.3631570E-17
   110.3440        1.3626445E-17
   110.5055        1.3620468E-17
   110.6670        1.3616781E-17
   110.8285        1.3617785E-17
   110.9900        1.3624005E-17
   111.1515        1.3633870E-17
   111.3130        1.3644528E-17
   111.4745        1.3653241E-17
   111.6360        1.3658689E-17
   111.7975        1.3661509E-17
   111.9590        1.3663848E-17
   112.1205        1.3668167E-17
   112.2820        1.3675888E-17
   112.4435        1.3686581E-17
   112.6050        1.3698047E-17
   112.7665        1.3707289E-17
   112.9280        1.3711872E-17
   113.0895        1.3711034E-17
   113.2510        1.3706035E-17
   113.4125        1.3699554E-17
   113.5740        1.3694454E-17
   113.7355        1.3692478E-17
   113.8970        1.3693488E-17
   114.0585        1.3695622E-17
   114.2200        1.3696280E-17
   114.3815        1.3693492E-17
   114.5430        1.3687006E-17
   114.7045        1.3678589E-17
   114.8660        1.3671359E-17
   115.0275        1.3668430E-17
   115.1890        1.3671496E-17
   115.3505        1.3679997E-17
   115.5120        1.3691303E-17
   115.6735        1.3701819E-17
   115.8350        1.3708555E-17
   115.9965        1.3710408E-17
   116.1580        1.3708580E-17
   116.3195        1.3705925E-17
   116.4810        1.3705531E-17
   116.6425        1.3709197E-17
   116.8040        1.3716534E-17
   116.9655        1.3725097E-17
   117.1270        1.3731510E-17
   117.2885        1.3733064E-17
   117.4500        1.3729026E-17
   117.6115        1.3721084E-17
   117.7730        1.3712688E-17
   117.9345        1.3707593E-17
   118.0960        1.3708255E-17
   118.2575        1.3714798E-17
   118.4190        1.3724991E-17
   118.5805        1.3735248E-17
   118.7420        1.3742200E-17