  -27.90000        5.9015581E-18
  -27.73850        5.9036174E-18
  -27.57700        5.9070465E-18
  -27.41550        5.9108953E-18
  -27.25400        5.9144593E-18
  -27.09250        5.9175843E-18
  -26.93100        5.9206073E-18
  -26.76950        5.9239842E-18
  -26.60800        5.9278898E-18
  -26.44650        5.9320497E-18
  -26.28500        5.9359209E-18
  -26.12350        5.9390720E-18
  -25.96200        5.9414952E-18
  -25.80050        5.9436261E-18
  -25.63900        5.9460468E-18
  -25.47750        5.9490896E-18
  -25.31600        5.9526022E-18
  -25.15450        5.9560553E-18
  -24.99300        5.9589107E-18
  -24.83150        5.9610026E-18
  -24.67000        5.9626591E-18
  -24.50850        5.9644780E-18
  -24.34700        5.9669075E-18
  -24.18550        5.9699143E-18
  -24.02400        5.9729864E-18
  -23.86250        5.9754659E-18
  -23.70100        5.9769995E-18
  -23.53950        5.9777977E-18
  -23.37800        5.9785252E-18
  -23.21650        5.9798826E-18
  -23.05500        5.9821570E-18
  -22.89350        5.9850269E-18
  -22.73200        5.9877661E-18
  -22.57050        5.9896988E-18
  -22.40900        5.9906227E-18
  -22.24750        5.9909160E-18
  -22.08600        5.9912766E-18
  -21.92450        5.9922659E-18
  -21.76300        5.9939695E-18
  -21.60150        5.9959911E-18
  -21.44000        5.9977630E-18
  -21.27850        5.9989409E-18
  -21.11700        5.9996163E-18
  -20.95550        6.0001974E-18
  -20.79400        6.0010663E-18
  -20.63250        6.0022732E-18
  -20.47100        6.0034891E-18
  -20.30950        6.0042687E-18
  -20.14800        6.0044325E-18
  -19.98650        6.0042902E-18
  -19.82500        6.0045297E-18
  -19.66350        6.0058118E-18
  -19.50200        6.0083443E-18
  -19.34050        6.0117076E-18
  -19.17900        6.0150721E-18
  -19.01750        6.0176736E-18
  -18.85600        6.0192432E-18
  -18.69450        6.0201101E-18
  -18.53300        6.0209182E-18
  -18.37150        6.0221495E-18
  -18.21000        6.0237815E-18
  -18.04850        6.0253085E-18
  -17.88700        6.0261129E-18
  -17.72550        6.0259322E-18
  -17.56400        6.0250984E-18
  -17.40250        6.0243887E-18
  -17.24100        6.0245789E-18
  -17.07950        6.0259876E-18
  -16.91800        6.0283132E-18
  -16.75650        6.0308551E-18
  -16.59500        6.0329645E-18
  -16.43350        6.0344195E-18
  -16.27200        6.0354820E-18
  -16.11050        6.0366140E-18
  -15.94900        6.0380731E-18
  -15.78750        6.0396812E-18
  -15.62600        6.0409356E-18
  -15.46450        6.0413893E-18
  -15.30300        6.0410216E-18
  -15.14150        6.0403293E-18
  -14.98000        6.0400596E-18
  -14.81850        6.0407544E-18
  -14.65700        6.0424051E-18
  -14.49550        6.0444681E-18
  -14.33400        6.0462213E-18
  -14.17250        6.0472457E-18
  -14.01100        6.0476932E-18
  -13.84950        6.0481775E-18
  -13.68800        6.0493555E-18
  -13.52650        6.0514834E-18
  -13.36500        6.0542515E-18
  -13.20350        6.0569969E-18
  -13.04200        6.0591571E-18
  -12.88050        6.0606448E-18
  -12.71900        6.0618968E-18
  -12.55750        6.0635544E-18
  -12.39600        6.0660107E-18
  -12.23450        6.0691321E-18
  -12.07300        6.0723498E-18
  -11.91150        6.0750535E-18
  -11.75000        6.0770176E-18
  -11.58850        6.0785582E-18
  -11.42700        6.0803106E-18
  -11.26550        6.0827756E-18
  -11.10400        6.0859441E-18
  -10.94250        6.0892624E-18
  -10.78100        6.0919565E-18
  -10.61950        6.0935170E-18
  -10.45800        6.0940075E-18
  -10.29650        6.0939934E-18
  -10.13500        6.0941448E-18
  -9.973500        6.0947747E-18
  -9.812000        6.0956370E-18
  -9.650500        6.0961143E-18
  -9.489000        6.0956689E-18
  -9.327500        6.0942465E-18
  -9.166000        6.0923523E-18
  -9.004500        6.0907550E-18
  -8.843000        6.0900110E-18
  -8.681500        6.0901305E-18
  -8.520000        6.0906107E-18
  -8.358500        6.0908005E-18
  -8.197000        6.0903456E-18
  -8.035500        6.0894150E-18
  -7.874000        6.0885593E-18
  -7.712500        6.0883144E-18
  -7.551000        6.0888306E-18
  -7.389500        6.0897905E-18
  -7.228000        6.0906677E-18
  -7.066500        6.0911479E-18
  -6.905000        6.0914002E-18
  -6.743500        6.0920016E-18
  -6.582000        6.0935476E-18
  -6.420500        6.0962198E-18
  -6.259000        6.0996025E-18
  -6.097500        6.1028964E-18
  -5.936000        6.1053924E-18
  -5.774500        6.1068954E-18
  -5.613000        6.1078127E-18
  -5.451500        6.1088521E-18
  -5.290000        6.1105288E-18
  -5.128500        6.1128093E-18
  -4.967000        6.1151436E-18
  -4.805500        6.1168472E-18
  -4.644000        6.1175904E-18
  -4.482500        6.1176533E-18
  -4.321000        6.1177745E-18
  -4.159500        6.1186943E-18
  -3.998000        6.1206899E-18
  -3.836500        6.1234183E-18
  -3.675000        6.1261579E-18
  -3.513500        6.1282896E-18
  -3.352000        6.1296846E-18
  -3.190500        6.1307480E-18
  -3.029000        6.1320938E-18
  -2.867500        6.1340922E-18
  -2.706000        6.1365949E-18
  -2.544500        6.1390342E-18
  -2.383000        6.1408164E-18
  -2.221500        6.1417313E-18
  -2.060000        6.1421010E-18
  -1.898500        6.1425564E-18
  -1.737000        6.1436032E-18
  -1.575500        6.1452745E-18
  -1.414000        6.1471104E-18
  -1.252500        6.1484802E-18
  -1.091000        6.1490253E-18
 -0.9295000        6.1489091E-18
 -0.7680000        6.1487036E-18
 -0.6065000        6.1489865E-18
 -0.4450000        6.1499311E-18
 -0.2835000        6.1511756E-18
 -0.1220000        6.1520727E-18
  3.9500002E-02    6.1521508E-18
  0.2010000        6.1514713E-18
  0.3625000        6.1506259E-18
  0.5240000        6.1503765E-18
  0.6855000        6.1511619E-18
  0.8470000        6.1528200E-18
   1.008500        6.1547019E-18
   1.170000        6.1561135E-18
   1.331500        6.1567884E-18
   1.493000        6.1570717E-18
   1.654500        6.1576880E-18
   1.816000        6.1592514E-18
   1.977500        6.1618342E-18
   2.139000        6.1648973E-18
   2.300500        6.1676154E-18
   2.462000        6.1693938E-18
   2.623500        6.1702189E-18
   2.785000        6.1706309E-18
   2.946500        6.1713323E-18
   3.108000        6.1727150E-18
   3.269500        6.1746175E-18
   3.431000        6.1764621E-18
   3.592500        6.1776714E-18
   3.754000        6.1780598E-18
   3.915500        6.1779287E-18
   4.077000        6.1778249E-18
   4.238500        6.1781239E-18
   4.400000        6.1787546E-18
   4.561500        6.1792534E-18
   4.723000        6.1791132E-18
   4.884500        6.1781744E-18
   5.046000        6.1767731E-18
   5.207500        6.1755290E-18
   5.369000        6.1749120E-18
   5.530500        6.1748971E-18
   5.692000        6.1749624E-18
   5.853500        6.1744537E-18
   6.015000        6.1730773E-18
   6.176500        6.1711826E-18
   6.338000        6.1696213E-18
   6.499500        6.1692536E-18
   6.661000        6.1704179E-18
   6.822500        6.1727013E-18
   6.984000        6.1751849E-18
   7.145500        6.1769985E-18
   7.307000        6.1778394E-18
   7.468500        6.1781260E-18
   7.630000        6.1786885E-18
   7.791500        6.1802163E-18
   7.953000        6.1828165E-18
   8.114500        6.1859709E-18
   8.276000        6.1889029E-18
   8.437500        6.1910949E-18
   8.599000        6.1926078E-18
   8.760500        6.1940004E-18
   8.922000        6.1959182E-18
   9.083500        6.1986487E-18
   9.245000        6.2019430E-18
   9.406500        6.2052120E-18
   9.568000        6.2079433E-18
   9.729500        6.2100245E-18
   9.891000        6.2117645E-18
   10.05250        6.2135868E-18
   10.21400        6.2156502E-18
   10.37550        6.2176718E-18
   10.53700        6.2191012E-18
   10.69850        6.2195288E-18
   10.86000        6.2190433E-18
   11.02150        6.2182608E-18
   11.18300        6.2179812E-18
   11.34450        6.2186835E-18
   11.50600        6.2201989E-18
   11.66750        6.2217953E-18
   11.82900        6.2226382E-18
   11.99050        6.2223284E-18
   12.15200        6.2211654E-18
   12.31350        6.2199586E-18
   12.47500        6.2195098E-18
   12.63650        6.2201070E-18
   12.79800        6.2213623E-18
   12.95950        6.2224914E-18
   13.12100        6.2228483E-18
   13.28250        6.2223437E-18
   13.44400        6.2214781E-18
   13.60550        6.2209735E-18
   13.76700        6.2212605E-18
   13.92850        6.2221700E-18
   14.09000        6.2230431E-18
   14.25150        6.2231755E-18
   14.41300        6.2222879E-18
   14.57450        6.2207146E-18
   14.73600        6.2191686E-18
   14.89750        6.2182707E-18
   15.05900        6.2181561E-18
   15.22050        6.2184357E-18
   15.38200        6.2185275E-18
   15.54350        6.2181214E-18
   15.70500        6.2174410E-18
   15.86650        6.2171201E-18
   16.02800        6.2177769E-18
   16.18950        6.2195789E-18
   16.35100        6.2221088E-18
   16.51250        6.2246239E-18
   16.67400        6.2265417E-18
   16.83550        6.2278159E-18
   16.99700        6.2289488E-18
   17.15850        6.2306209E-18
   17.32000        6.2332021E-18
   17.48150        6.2364699E-18
   17.64300        6.2397360E-18
   17.80450        6.2422875E-18
   17.96600        6.2438446E-18
   18.12750        6.2447103E-18
   18.28900        6.2455139E-18
   18.45050        6.2467294E-18
   18.61200        6.2483056E-18
   18.77350        6.2496783E-18
   18.93500        6.2501598E-18
   19.09650        6.2494447E-18
   19.25800        6.2478838E-18
   19.41950        6.2463142E-18
   19.58100        6.2455594E-18
   19.74250        6.2459142E-18
   19.90400        6.2469701E-18
   20.06550        6.2479007E-18
   20.22700        6.2480178E-18
   20.38850        6.2472452E-18
   20.55000        6.2461872E-18
   20.71150        6.2457451E-18
   20.87300        6.2465450E-18
   21.03450        6.2485488E-18
   21.19600        6.2510949E-18
   21.35750        6.2533403E-18
   21.51900        6.2547862E-18
   21.68050        6.2555542E-18
   21.84200        6.2562263E-18
   22.00350        6.2573906E-18
   22.16500        6.2592054E-18
   22.32650        6.2612870E-18
   22.48800        6.2629744E-18
   22.64950        6.2637797E-18
   22.81100        6.2637065E-18
   22.97250        6.2632081E-18
   23.13400        6.2628359E-18
   23.29550        6.2628330E-18
   23.45700        6.2629724E-18
   23.61850        6.2627569E-18
   23.78000        6.2618424E-18
   23.94150        6.2603618E-18
   24.10300        6.2589105E-18
   24.26450        6.2581747E-18
   24.42600        6.2584502E-18
   24.58750        6.2593948E-18
   24.74900        6.2602075E-18
   24.91050        6.2601310E-18
   25.07200        6.2589618E-18
   25.23350        6.2572131E-18
   25.39500        6.2558160E-18
   25.55650        6.2555414E-18
   25.71800        6.2565170E-18
   25.87950        6.2581578E-18
   26.04100        6.2595545E-18
   26.20250        6.2600657E-18
   26.36400        6.2597323E-18
   26.52550        6.2592339E-18
   26.68700        6.2594382E-18
   26.84850        6.2608337E-18
   27.01000        6.2632280E-18
   27.17150        6.2658873E-18
   27.33300        6.2680128E-18
   27.49450        6.2692159E-18
   27.65600        6.2696866E-18
   27.81750        6.2699600E-18
   27.97900        6.2704790E-18
   28.14050        6.2712715E-18
   28.30200        6.2719704E-18
   28.46350        6.2721475E-18
   28.62500        6.2717033E-18
   28.78650        6.2710188E-18
   28.94800        6.2707417E-18
   29.10950        6.2713496E-18
   29.27100        6.2728063E-18
   29.43250        6.2745624E-18
   29.59400        6.2759306E-18
   29.75550        6.2765720E-18
   29.91700        6.2767656E-18
   30.07850        6.2772483E-18
   30.24000        6.2787144E-18
   30.40150        6.2813072E-18
   30.56300        6.2844485E-18
   30.72450        6.2871430E-18
   30.88600        6.2885757E-18
   31.04750        6.2886050E-18
   31.20900        6.2878498E-18
   31.37050        6.2872911E-18
   31.53200        6.2876550E-18
   31.69350        6.2889752E-18
   31.85500        6.2906060E-18
   32.01650        6.2916640E-18
   32.17800        6.2916032E-18
   32.33950        6.2905439E-18
   32.50100        6.2891580E-18
   32.66250        6.2882084E-18
   32.82400        6.2880670E-18
   32.98550        6.2885306E-18
   33.14700        6.2890302E-18
   33.30850        6.2890670E-18
   33.47000        6.2885447E-18
   33.63150        6.2877865E-18
   33.79300        6.2872356E-18
   33.95450        6.2870892E-18
   34.11600        6.2871455E-18
   34.27750        6.2869879E-18
   34.43900        6.2863659E-18
   34.60050        6.2854878E-18
   34.76200        6.2849733E-18
   34.92350        6.2854783E-18
   35.08500        6.2872261E-18
   35.24650        6.2897805E-18
   35.40800        6.2922401E-18
   35.56950        6.2937609E-18
   35.73100        6.2940723E-18
   35.89250        6.2936372E-18
   36.05400        6.2933502E-18
   36.21550        6.2939432E-18
   36.37700        6.2955017E-18
   36.53850        6.2974004E-18
   36.70000        6.2987103E-18
   36.86150        6.2988083E-18
   37.02300        6.2977950E-18
   37.18450        6.2964426E-18
   37.34600        6.2957167E-18
   37.50750        6.2961779E-18
   37.66900        6.2976507E-18
   37.83050        6.2993567E-18
   37.99200        6.3004044E-18
   38.15350        6.3003134E-18
   38.31500        6.2992331E-18
   38.47650        6.2977495E-18
   38.63800        6.2964475E-18
   38.79950        6.2955459E-18
   38.96100        6.2948478E-18
   39.12250        6.2940160E-18
   39.28400        6.2929415E-18
   39.44550        6.2919183E-18
   39.60700        6.2914919E-18
   39.76850        6.2920809E-18
   39.93000        6.2936632E-18
   40.09150        6.2957568E-18
   40.25300        6.2977293E-18
   40.41450        6.2992227E-18
   40.57600        6.3003998E-18
   40.73750        6.3018192E-18
   40.89900        6.3040274E-18
   41.06050        6.3071302E-18
   41.22200        6.3106585E-18
   41.38350        6.3138200E-18
   41.54500        6.3159814E-18
   41.70650        6.3170605E-18
   41.86800        6.3175477E-18
   42.02950        6.3181515E-18
   42.19100        6.3192972E-18
   42.35250        6.3208196E-18
   42.51400        6.3220732E-18
   42.67550        6.3223739E-18
   42.83700        6.3214842E-18
   42.99850        6.3198137E-18
   43.16000        6.3181887E-18
   43.32150        6.3173487E-18
   43.48300        6.3175088E-18
   43.64450        6.3182706E-18
   43.80600        6.3189349E-18
   43.96750        6.3189977E-18
   44.12900        6.3184853E-18
   44.29050        6.3179162E-18
   44.45200        6.3179141E-18
   44.61350        6.3187504E-18
   44.77500        6.3201355E-18
   44.93650        6.3214044E-18
   45.09800        6.3219665E-18
   45.25950        6.3217088E-18
   45.42100        6.3210843E-18
   45.58250        6.3208059E-18
   45.74400        6.3213763E-18
   45.90550        6.3227519E-18
   46.06700        6.3243732E-18
   46.22850        6.3255300E-18
   46.39000        6.3258075E-18
   46.55150        6.3253108E-18
   46.71300        6.3245378E-18
   46.87450        6.3239968E-18
   47.03600        6.3238586E-18
   47.19750        6.3238740E-18
   47.35900        6.3236142E-18
   47.52050        6.3228503E-18
   47.68200        6.3217779E-18
   47.84350        6.3209284E-18
   48.00500        6.3208051E-18
   48.16650        6.3215132E-18
   48.32800        6.3226423E-18
   48.48950        6.3235096E-18
   48.65100        6.3236014E-18
   48.81250        6.3229239E-18
   48.97400        6.3220173E-18
   49.13550        6.3216079E-18
   49.29700        6.3221356E-18
   49.45850        6.3234724E-18
   49.62000        6.3250155E-18
   49.78150        6.3261020E-18
   49.94300        6.3264539E-18
   50.10450        6.3263629E-18
   50.26600        6.3264792E-18
   50.42750        6.3273473E-18
   50.58900        6.3290012E-18
   50.75050        6.3308971E-18
   50.91200        6.3322239E-18
   51.07350        6.3323980E-18
   51.23500        6.3314145E-18
   51.39650        6.3298309E-18
   51.55800        6.3284127E-18
   51.71950        6.3276761E-18
   51.88100        6.3276331E-18
   52.04250        6.3278932E-18
   52.20400        6.3280156E-18
   52.36550        6.3278589E-18
   52.52700        6.3276728E-18
   52.68850        6.3278854E-18
   52.85000        6.3287469E-18
   53.01150        6.3300960E-18
   53.17300        6.3314302E-18
   53.33450        6.3322339E-18
   53.49600        6.3323426E-18
   53.65750        6.3320792E-18
   53.81900        6.3320593E-18
   53.98050        6.3327918E-18
   54.14200        6.3343448E-18
   54.30350        6.3363019E-18
   54.46500        6.3380489E-18
   54.62650        6.3391838E-18
   54.78800        6.3397765E-18
   54.94950        6.3402927E-18
   55.11100        6.3412427E-18
   55.27250        6.3427912E-18
   55.43400        6.3446101E-18
   55.59550        6.3460738E-18
   55.75700        6.3466669E-18
   55.91850        6.3463269E-18
   56.08000        6.3454849E-18
   56.24150        6.3447739E-18
   56.40300        6.3446035E-18
   56.56450        6.3448914E-18
   56.72600        6.3451341E-18
   56.88750        6.3447702E-18
   57.04900        6.3435898E-18
   57.21050        6.3419015E-18
   57.37200        6.3403452E-18
   57.53350        6.3394754E-18
   57.69500        6.3394001E-18
   57.85650        6.3397219E-18
   58.01800        6.3398228E-18
   58.17950        6.3393034E-18
   58.34100        6.3382690E-18
   58.50250        6.3372730E-18
   58.66400        6.3369537E-18
   58.82550        6.3376023E-18
   58.98700        6.3389572E-18
   59.14850        6.3403580E-18
   59.31000        6.3411571E-18
   59.47150        6.3411128E-18
   59.63300        6.3405119E-18
   59.79450        6.3399568E-18
   59.95600        6.3399676E-18
   60.11750        6.3406781E-18
   60.27900        6.3418167E-18
   60.44050        6.3429587E-18
   60.60200        6.3438574E-18
   60.76350        6.3446035E-18
   60.92500        6.3455060E-18
   61.08650        6.3467918E-18
   61.24800        6.3483593E-18
   61.40950        6.3497763E-18
   61.57100        6.3505427E-18
   61.73250        6.3504364E-18
   61.89400        6.3496886E-18
   62.05550        6.3488449E-18
   62.21700        6.3484015E-18
   62.37850        6.3484565E-18
   62.54000        6.3486257E-18
   62.70150        6.3483122E-18
   62.86300        6.3471558E-18
   63.02450        6.3453604E-18
   63.18600        6.3436767E-18
   63.34750        6.3430066E-18
   63.50900        6.3438868E-18
   63.67050        6.3461532E-18
   63.83200        6.3490207E-18
   63.99350        6.3515163E-18
   64.15500        6.3530093E-18
   64.31650        6.3535085E-18
   64.47800        6.3535681E-18
   64.63950        6.3538857E-18
   64.80100        6.3548651E-18
   64.96250        6.3564132E-18
   65.12400        6.3580659E-18
   65.28550        6.3593199E-18
   65.44700        6.3599291E-18
   65.60850        6.3599758E-18
   65.77000        6.3597091E-18
   65.93150        6.3593075E-18
   66.09300        6.3587599E-18
   66.25450        6.3579501E-18
   66.41600        6.3568528E-18
   66.57750        6.3556592E-18
   66.73900        6.3547017E-18
   66.90050        6.3542042E-18
   67.06200        6.3540520E-18
   67.22350        6.3537765E-18
   67.38500        6.3528265E-18
   67.54650        6.3509745E-18
   67.70800        6.3485835E-18
   67.86950        6.3465193E-18
   68.03100        6.3457119E-18
   68.19250        6.3466049E-18
   68.35400        6.3488383E-18
   68.51550        6.3513860E-18
   68.67700        6.3530974E-18
   68.83850        6.3533377E-18
   69.00000        6.3523451E-18
   69.16150        6.3510961E-18
   69.32300        6.3507573E-18
   69.48450        6.3520423E-18
   69.64600        6.3548444E-18
   69.80750        6.3583277E-18
   69.96900        6.3613949E-18
   70.13050        6.3632287E-18
   70.29200        6.3636138E-18
   70.45350        6.3629007E-18
   70.61500        6.3617096E-18
   70.77650        6.3605970E-18
   70.93800        6.3598716E-18
   71.09950        6.3596098E-18
   71.26100        6.3597686E-18
   71.42250        6.3602629E-18
   71.58400        6.3609515E-18
   71.74550        6.3615930E-18
   71.90700        6.3618800E-18
   72.06850        6.3615959E-18
   72.23000        6.3608121E-18
   72.39150        6.3599647E-18
   72.55300        6.3596843E-18
   72.71450        6.3604308E-18
   72.87600        6.3621240E-18
   73.03750        6.3640476E-18
   73.19900        6.3651416E-18
   73.36050        6.3645754E-18
   73.52200        6.3622758E-18
   73.68350        6.3590928E-18
   73.84500        6.3564508E-18
   74.00650        6.3556476E-18
   74.16800        6.3571878E-18
   74.32950        6.3605147E-18
   74.49100        6.3643007E-18
   74.65250        6.3671264E-18
   74.81400        6.3681691E-18
   74.97550        6.3675321E-18
   75.13700        6.3660767E-18
   75.29850        6.3648852E-18
   75.46000        6.3646937E-18
   75.62150        6.3655920E-18
   75.78300        6.3670917E-18
   75.94450        6.3684644E-18
   76.10600        6.3691104E-18
   76.26750        6.3687663E-18
   76.42900        6.3675061E-18
   76.59050        6.3656197E-18
   76.75200        6.3634914E-18
   76.91350        6.3615326E-18
   77.07500        6.3601454E-18
   77.23650        6.3596421E-18
   77.39800        6.3601160E-18
   77.55950        6.3613332E-18
   77.72100        6.3627572E-18
   77.88250        6.3637660E-18
   78.04400        6.3639707E-18
   78.20550        6.3634698E-18
   78.36700        6.3628383E-18
   78.52850        6.3628251E-18
   78.69000        6.3638942E-18
   78.85150        6.3658807E-18
   79.01300        6.3679846E-18
   79.17450        6.3691406E-18
   79.33600        6.3685740E-18
   79.49750        6.3662330E-18
   79.65900        6.3628470E-18
   79.82050        6.3595854E-18
   79.98200        6.3575022E-18
   80.14350        6.3570807E-18
   80.30500        6.3580969E-18
   80.46650        6.3598443E-18
   80.62800        6.3615404E-18
   80.78950        6.3626815E-18
   80.95100        6.3631737E-18
   81.11250        6.3632296E-18
   81.27400        6.3631716E-18
   81.43550        6.3632755E-18
   81.59700        6.3637350E-18
   81.75850        6.3646970E-18
   81.92000        6.3662732E-18
   82.08150        6.3684776E-18
   82.24300        6.3711221E-18
   82.40450        6.3737860E-18
   82.56600        6.3759297E-18
   82.72750        6.3771311E-18
   82.88900        6.3773164E-18
   83.05050        6.3768148E-18
   83.21200        6.3761849E-18
   83.37350        6.3758771E-18
   83.53500        6.3759404E-18
   83.69650        6.3759537E-18
   83.85800        6.3752468E-18
   84.01950        6.3732930E-18
   84.18100        6.3700538E-18
   84.34250        6.3660664E-18
   84.50400        6.3622270E-18
   84.66550        6.3593848E-18
   84.82700        6.3579724E-18
   84.98850        6.3578591E-18
   85.15000        6.3584803E-18
   85.31150        6.3591524E-18
   85.47300        6.3593902E-18
   85.63450        6.3590850E-18
   85.79600        6.3584939E-18
   85.95750        6.3580878E-18
   86.11900        6.3583566E-18
   86.28050        6.3596408E-18
   86.44200        6.3620260E-18
   86.60350        6.3652913E-18
   86.76500        6.3689263E-18
   86.92650        6.3722313E-18
   87.08800        6.3745086E-18
   87.24950        6.3753122E-18
   87.41100        6.3746492E-18
   87.57250        6.3730201E-18
   87.73400        6.3712396E-18
   87.89550        6.3700778E-18
   88.05700        6.3699045E-18
   88.21850        6.3705149E-18
   88.38000        6.3712515E-18
   88.54150        6.3713760E-18
   88.70300        6.3704930E-18
   88.86450        6.3687923E-18
   89.02600        6.3669771E-18
   89.18750        6.3658943E-18
   89.34900        6.3660883E-18
   89.51050        6.3675024E-18
   89.67200        6.3694909E-18
   89.83350        6.3711308E-18
   89.99500        6.3716593E-18
   90.15650        6.3708165E-18
   90.31800        6.3689321E-18
   90.47950        6.3667434E-18
   90.64100        6.3650551E-18
   90.80250        6.3644050E-18
   90.96400        6.3648847E-18
   91.12550        6.3661586E-18
   91.28700        6.3676405E-18
   91.44850        6.3687456E-18
   91.61000        6.3691162E-18
   91.77150        6.3687502E-18
   91.93300        6.3679970E-18
   92.09450        6.3674184E-18
   92.25600        6.3675603E-18
   92.41750        6.3687142E-18
   92.57900        6.3707656E-18
   92.74050        6.3732066E-18
   92.90200        6.3753324E-18
   93.06350        6.3765430E-18
   93.22500        6.3766154E-18
   93.38650        6.3757994E-18
   93.54800        6.3746934E-18
   93.70950        6.3739374E-18
   93.87100        6.3738940E-18
   94.03250        6.3744792E-18
   94.19400        6.3752282E-18
   94.35550        6.3755607E-18
   94.51700        6.3750930E-18
   94.67850        6.3738357E-18
   94.84000        6.3721751E-18
   95.00150        6.3706634E-18
   95.16300        6.3697515E-18
   95.32450        6.3695881E-18
   95.48600        6.3699860E-18
   95.64750        6.3705431E-18
   95.80900        6.3708367E-18
   95.97050        6.3705972E-18
   96.13200        6.3697920E-18
   96.29350        6.3686182E-18
   96.45500        6.3674229E-18
   96.61650        6.3665949E-18
   96.77800        6.3664423E-18
   96.93950        6.3670883E-18
   97.10100        6.3684118E-18
   97.26250        6.3700596E-18
   97.42400        6.3715626E-18
   97.58550        6.3725147E-18
   97.74700        6.3727463E-18
   97.90850        6.3723960E-18
   98.07000        6.3718322E-18
   98.23150        6.3714410E-18
   98.39300        6.3714037E-18
   98.55450        6.3715820E-18
   98.71600        6.3715986E-18
   98.87750        6.3710671E-18
   99.03900        6.3698524E-18
   99.20050        6.3681955E-18
   99.36200        6.3666355E-18
   99.52350        6.3657599E-18
   99.68500        6.3659249E-18
   99.84650        6.3671008E-18
   100.0080        6.3689086E-18
   100.1695        6.3708264E-18
   100.3310        6.3724150E-18
   100.4925        6.3734659E-18
   100.6540        6.3739999E-18
   100.8155        6.3741669E-18
   100.9770        6.3741301E-18
   101.1385        6.3740044E-18
   101.3000        6.3738580E-18
   101.4615        6.3737318E-18
   101.6230        6.3736347E-18
   101.7845        6.3735139E-18
   101.9460        6.3732434E-18
   102.1075        6.3726755E-18
   102.2690        6.3717524E-18
   102.4305        6.3706134E-18
   102.5920        6.3695984E-18
   102.7535        6.3691174E-18
   102.9150        6.3694280E-18
   103.0765        6.3704579E-18
   103.2380        6.3718016E-18
   103.3995        6.3729138E-18
   103.5610        6.3734138E-18
   103.7225        6.3733108E-18
   103.8840        6.3730068E-18
   104.0455        6.3730548E-18
   104.2070        6.3738162E-18
   104.3685        6.3752220E-18
   104.5300        6.3767912E-18
   104.6915        6.3778893E-18
   104.8530        6.3780820E-18
   105.0145        6.3773574E-18
   105.1760        6.3760992E-18
   105.3375        6.3748465E-18
   105.4990        6.3739994E-18
   105.6605        6.3736524E-18
   105.8220        6.3736404E-18
   105.9835        6.3737219E-18
   106.1450        6.3737591E-18
   106.3065        6.3737662E-18
   106.4680        6.3738162E-18
   106.6295        6.3739051E-18
   106.7910        6.3739018E-18
   106.9525        6.3736285E-18
   107.1140        6.3730155E-18
   107.2755        6.3721945E-18
   107.4370        6.3714414E-18
   107.5985        6.3709877E-18
   107.7600        6.3708437E-18
   107.9215        6.3707701E-18
   108.0830        6.3704455E-18
   108.2445        6.3697275E-18
   108.4060        6.3688217E-18
   108.5675        6.3682174E-18
   108.7290        6.3684060E-18
   108.8905        6.3695521E-18
   109.0520        6.3713446E-18
   109.2135        6.3731383E-18
   109.3750        6.3743175E-18
   109.5365        6.3746533E-18
   109.6980        6.3744263E-18
   109.8595        6.3742244E-18
   110.0210        6.3745570E-18
   110.1825        6.3755202E-18
   110.3440        6.3767436E-18
   110.5055        6.3776378E-18
   110.6670        6.3777759E-18
   110.8285        6.3771560E-18
   110.9900        6.3761745E-18
   111.1515        6.3753527E-18
   111.3130        6.3750007E-18
   111.4745        6.3750574E-18
   111.6360        6.3751918E-18
   111.7975        6.3750768E-18
   111.9590        6.3746314E-18
   112.1205        6.3740594E-18
   112.2820        6.3736682E-18
   112.4435        6.3736169E-18
   112.6050        6.3737889E-18
   112.7665        6.3738721E-18
   112.9280        6.3736024E-18
   113.0895        6.3729597E-18
   113.2510        6.3721858E-18
   113.4125        6.3715915E-18
   113.5740        6.3713132E-18
   113.7355        6.3712052E-18
   113.8970        6.3709691E-18
   114.0585        6.3704273E-18
   114.2200        6.3697399E-18
   114.3815        6.3693714E-18
   114.5430        6.3698094E-18
   114.7045        6.3711970E-18
   114.8660        6.3731462E-18
   115.0275        6.3748854E-18
   115.1890        6.3756753E-18
   115.3505        6.3752460E-18
   115.5120        6.3739581E-18
   115.6735        6.3725912E-18
   115.8350        6.3718736E-18
   115.9965        6.3720618E-18
   116.1580        6.3728302E-18
   116.3195        6.3735387E-18
   116.4810        6.3736930E-18
   116.6425        6.3732864E-18
   116.8040        6.3728062E-18
   116.9655        6.3729038E-18
   117.1270        6.3739630E-18
   117.2885        6.3758403E-18
   117.4500        6.3779459E-18
   117.6115        6.3795825E-18
   117.7730        6.3803100E-18
   117.9345        6.3801177E-18
   118.0960        6.3793128E-18
   118.2575        6.3782631E-18
   118.4190        6.3771878E-18
   118.5805        6.3761385E-18
   118.7420        6.3751434E-18