  -27.90000       -2.9999494E-18
  -27.73850       -3.0048384E-18
  -27.57700       -3.0128919E-18
  -27.41550       -3.0214954E-18
  -27.25400       -3.0282356E-18
  -27.09250       -3.0318881E-18
  -26.93100       -3.0328726E-18
  -26.76950       -3.0329853E-18
  -26.60800       -3.0345280E-18
  -26.44650       -3.0392223E-18
  -26.28500       -3.0473886E-18
  -26.12350       -3.0577590E-18
  -25.96200       -3.0680017E-18
  -25.80050       -3.0757280E-18
  -25.63900       -3.0795401E-18
  -25.47750       -3.0796495E-18
  -25.31600       -3.0777972E-18
  -25.15450       -3.0765010E-18
  -24.99300       -3.0779666E-18
  -24.83150       -3.0831391E-18
  -24.67000       -3.0913096E-18
  -24.50850       -3.1004518E-18
  -24.34700       -3.1081289E-18
  -24.18550       -3.1125708E-18
  -24.02400       -3.1134433E-18
  -23.86250       -3.1119771E-18
  -23.70100       -3.1104020E-18
  -23.53950       -3.1109479E-18
  -23.37800       -3.1148588E-18
  -23.21650       -3.1218512E-18
  -23.05500       -3.1302593E-18
  -22.89350       -3.1377862E-18
  -22.73200       -3.1425253E-18
  -22.57050       -3.1437969E-18
  -22.40900       -3.1424350E-18
  -22.24750       -3.1403980E-18
  -22.08600       -3.1398943E-18
  -21.92450       -3.1423979E-18
  -21.76300       -3.1480023E-18
  -21.60150       -3.1553874E-18
  -21.44000       -3.1624132E-18
  -21.27850       -3.1670721E-18
  -21.11700       -3.1683772E-18
  -20.95550       -3.1667923E-18
  -20.79400       -3.1640155E-18
  -20.63250       -3.1622217E-18
  -20.47100       -3.1631010E-18
  -20.30950       -3.1671224E-18
  -20.14800       -3.1733494E-18
  -19.98650       -3.1798835E-18
  -19.82500       -3.1847316E-18
  -19.66350       -3.1867079E-18
  -19.50200       -3.1859577E-18
  -19.34050       -3.1838734E-18
  -19.17900       -3.1824426E-18
  -19.01750       -3.1833318E-18
  -18.85600       -3.1871201E-18
  -18.69450       -3.1930334E-18
  -18.53300       -3.1992943E-18
  -18.37150       -3.2039274E-18
  -18.21000       -3.2056429E-18
  -18.04850       -3.2044139E-18
  -17.88700       -3.2014830E-18
  -17.72550       -3.1988009E-18
  -17.56400       -3.1981609E-18
  -17.40250       -3.2004189E-18
  -17.24100       -3.2051443E-18
  -17.07950       -3.2108504E-18
  -16.91800       -3.2156915E-18
  -16.75650       -3.2182988E-18
  -16.59500       -3.2183838E-18
  -16.43350       -3.2168297E-18
  -16.27200       -3.2152510E-18
  -16.11050       -3.2152182E-18
  -15.94900       -3.2175061E-18
  -15.78750       -3.2217115E-18
  -15.62600       -3.2264124E-18
  -15.46450       -3.2298014E-18
  -15.30300       -3.2305123E-18
  -15.14150       -3.2282622E-18
  -14.98000       -3.2240161E-18
  -14.81850       -3.2195968E-18
  -14.65700       -3.2169116E-18
  -14.49550       -3.2171438E-18
  -14.33400       -3.2202743E-18
  -14.17250       -3.2251483E-18
  -14.01100       -3.2300510E-18
  -13.84950       -3.2335278E-18
  -13.68800       -3.2350639E-18
  -13.52650       -3.2353112E-18
  -13.36500       -3.2357529E-18
  -13.20350       -3.2379642E-18
  -13.04200       -3.2428117E-18
  -12.88050       -3.2499817E-18
  -12.71900       -3.2580518E-18
  -12.55750       -3.2650810E-18
  -12.39600       -3.2694461E-18
  -12.23450       -3.2705410E-18
  -12.07300       -3.2690201E-18
  -11.91150       -3.2664709E-18
  -11.75000       -3.2646823E-18
  -11.58850       -3.2648356E-18
  -11.42700       -3.2669906E-18
  -11.26550       -3.2701016E-18
  -11.10400       -3.2725459E-18
  -10.94250       -3.2729175E-18
  -10.78100       -3.2707251E-18
  -10.61950       -3.2666618E-18
  -10.45800       -3.2623381E-18
  -10.29650       -3.2595828E-18
  -10.13500       -3.2596419E-18
  -9.973500       -3.2626257E-18
  -9.812000       -3.2674650E-18
  -9.650500       -3.2723960E-18
  -9.489000       -3.2757692E-18
  -9.327500       -3.2768164E-18
  -9.166000       -3.2760238E-18
  -9.004500       -3.2749247E-18
  -8.843000       -3.2753991E-18
  -8.681500       -3.2787853E-18
  -8.520000       -3.2852117E-18
  -8.358500       -3.2934668E-18
  -8.197000       -3.3014797E-18
  -8.035500       -3.3072100E-18
  -7.874000       -3.3095459E-18
  -7.712500       -3.3087936E-18
  -7.551000       -3.3065284E-18
  -7.389500       -3.3048622E-18
  -7.228000       -3.3054578E-18
  -7.066500       -3.3087518E-18
  -6.905000       -3.3137538E-18
  -6.743500       -3.3185221E-18
  -6.582000       -3.3210989E-18
  -6.420500       -3.3204651E-18
  -6.259000       -3.3170747E-18
  -6.097500       -3.3127031E-18
  -5.936000       -3.3096849E-18
  -5.774500       -3.3098720E-18
  -5.613000       -3.3137900E-18
  -5.451500       -3.3203758E-18
  -5.290000       -3.3274188E-18
  -5.128500       -3.3325142E-18
  -4.967000       -3.3341049E-18
  -4.805500       -3.3321482E-18
  -4.644000       -3.3281147E-18
  -4.482500       -3.3243187E-18
  -4.321000       -3.3228844E-18
  -4.159500       -3.3247956E-18
  -3.998000       -3.3294528E-18
  -3.836500       -3.3349383E-18
  -3.675000       -3.3388763E-18
  -3.513500       -3.3395293E-18
  -3.352000       -3.3366295E-18
  -3.190500       -3.3315760E-18
  -3.029000       -3.3268884E-18
  -2.867500       -3.3251310E-18
  -2.706000       -3.3277861E-18
  -2.544500       -3.3345727E-18
  -2.383000       -3.3435327E-18
  -2.221500       -3.3518622E-18
  -2.060000       -3.3571334E-18
  -1.898500       -3.3583605E-18
  -1.737000       -3.3564305E-18
  -1.575500       -3.3536936E-18
  -1.414000       -3.3528906E-18
  -1.252500       -3.3558897E-18
  -1.091000       -3.3628176E-18
 -0.9295000       -3.3719763E-18
 -0.7680000       -3.3805941E-18
 -0.6065000       -3.3860665E-18
 -0.4450000       -3.3871208E-18
 -0.2835000       -3.3843882E-18
 -0.1220000       -3.3801216E-18
  3.9500002E-02   -3.3771963E-18
  0.2010000       -3.3778359E-18
  0.3625000       -3.3826323E-18
  0.5240000       -3.3902862E-18
  0.6855000       -3.3981781E-18
  0.8470000       -3.4035155E-18
   1.008500       -3.4045478E-18
   1.170000       -3.4013216E-18
   1.331500       -3.3956496E-18
   1.493000       -3.3903162E-18
   1.654500       -3.3878696E-18
   1.816000       -3.3895291E-18
   1.977500       -3.3946731E-18
   2.139000       -3.4011340E-18
   2.300500       -3.4061647E-18
   2.462000       -3.4076673E-18
   2.623500       -3.4051304E-18
   2.785000       -3.3998674E-18
   2.946500       -3.3944401E-18
   3.108000       -3.3915203E-18
   3.269500       -3.3927018E-18
   3.431000       -3.3977895E-18
   3.592500       -3.4048989E-18
   3.754000       -3.4113048E-18
   3.915500       -3.4146661E-18
   4.077000       -3.4140693E-18
   4.238500       -3.4104235E-18
   4.400000       -3.4060266E-18
   4.561500       -3.4035211E-18
   4.723000       -3.4047044E-18
   4.884500       -3.4097448E-18
   5.046000       -3.4171392E-18
   5.207500       -3.4244202E-18
   5.369000       -3.4292621E-18
   5.530500       -3.4304834E-18
   5.692000       -3.4285038E-18
   5.853500       -3.4250770E-18
   6.015000       -3.4224478E-18
   6.176500       -3.4223314E-18
   6.338000       -3.4251605E-18
   6.499500       -3.4299274E-18
   6.661000       -3.4346646E-18
   6.822500       -3.4373420E-18
   6.984000       -3.4367702E-18
   7.145500       -3.4331228E-18
   7.307000       -3.4278607E-18
   7.468500       -3.4231000E-18
   7.630000       -3.4207159E-18
   7.791500       -3.4215675E-18
   7.953000       -3.4251796E-18
   8.114500       -3.4300035E-18
   8.276000       -3.4341518E-18
   8.437500       -3.4362650E-18
   8.599000       -3.4361287E-18
   8.760500       -3.4347591E-18
   8.922000       -3.4339086E-18
   9.083500       -3.4352284E-18
   9.245000       -3.4394703E-18
   9.406500       -3.4461103E-18
   9.568000       -3.4535659E-18
   9.729500       -3.4599116E-18
   9.891000       -3.4637537E-18
   10.05250       -3.4648580E-18
   10.21400       -3.4642332E-18
   10.37550       -3.4636387E-18
   10.53700       -3.4647498E-18
   10.69850       -3.4683780E-18
   10.86000       -3.4741139E-18
   11.02150       -3.4805519E-18
   11.18300       -3.4859802E-18
   11.34450       -3.4891909E-18
   11.50600       -3.4900256E-18
   11.66750       -3.4894089E-18
   11.82900       -3.4888704E-18
   11.99050       -3.4897968E-18
   12.15200       -3.4927639E-18
   12.31350       -3.4972642E-18
   12.47500       -3.5019398E-18
   12.63650       -3.5052147E-18
   12.79800       -3.5060224E-18
   12.95950       -3.5043039E-18
   13.12100       -3.5010444E-18
   13.28250       -3.4978308E-18
   13.44400       -3.4961409E-18
   13.60550       -3.4966790E-18
   13.76700       -3.4990670E-18
   13.92850       -3.5020234E-18
   14.09000       -3.5039528E-18
   14.25150       -3.5036852E-18
   14.41300       -3.5010316E-18
   14.57450       -3.4968949E-18
   14.73600       -3.4928781E-18
   14.89750       -3.4905578E-18
   15.05900       -3.4907597E-18
   15.22050       -3.4931726E-18
   15.38200       -3.4965061E-18
   15.54350       -3.4991105E-18
   15.70500       -3.4997793E-18
   15.86650       -3.4983486E-18
   16.02800       -3.4958092E-18
   16.18950       -3.4938620E-18
   16.35100       -3.4941300E-18
   16.51250       -3.4973895E-18
   16.67400       -3.5031798E-18
   16.83550       -3.5099916E-18
   16.99700       -3.5159391E-18
   17.15850       -3.5196014E-18
   17.32000       -3.5206449E-18
   17.48150       -3.5199290E-18
   17.64300       -3.5190621E-18
   17.80450       -3.5196212E-18
   17.96600       -3.5224113E-18
   18.12750       -3.5270853E-18
   18.28900       -3.5323003E-18
   18.45050       -3.5363249E-18
   18.61200       -3.5378205E-18
   18.77350       -3.5364523E-18
   18.93500       -3.5330580E-18
   19.09650       -3.5293005E-18
   19.25800       -3.5269579E-18
   19.41950       -3.5271635E-18
   19.58100       -3.5299213E-18
   19.74250       -3.5341130E-18
   19.90400       -3.5379884E-18
   20.06550       -3.5399376E-18
   20.22700       -3.5392130E-18
   20.38850       -3.5362786E-18
   20.55000       -3.5326345E-18
   20.71150       -3.5301657E-18
   20.87300       -3.5303018E-18
   21.03450       -3.5333586E-18
   21.19600       -3.5383842E-18
   21.35750       -3.5435929E-18
   21.51900       -3.5472073E-18
   21.68050       -3.5483157E-18
   21.84200       -3.5473405E-18
   22.00350       -3.5458838E-18
   22.16500       -3.5459992E-18
   22.32650       -3.5492256E-18
   22.48800       -3.5558274E-18
   22.64950       -3.5646062E-18
   22.81100       -3.5733884E-18
   22.97250       -3.5799686E-18
   23.13400       -3.5830739E-18
   23.29550       -3.5828944E-18
   23.45700       -3.5809356E-18
   23.61850       -3.5792800E-18
   23.78000       -3.5795985E-18
   23.94150       -3.5823869E-18
   24.10300       -3.5867548E-18
   24.26450       -3.5908613E-18
   24.42600       -3.5927717E-18
   24.58750       -3.5913568E-18
   24.74900       -3.5868255E-18
   24.91050       -3.5806577E-18
   25.07200       -3.5749828E-18
   25.23350       -3.5716757E-18
   25.39500       -3.5715694E-18
   25.55650       -3.5741308E-18
   25.71800       -3.5777270E-18
   25.87950       -3.5803698E-18
   26.04100       -3.5806039E-18
   26.20250       -3.5781683E-18
   26.36400       -3.5741279E-18
   26.52550       -3.5704242E-18
   26.68700       -3.5690134E-18
   26.84850       -3.5709813E-18
   27.01000       -3.5760271E-18
   27.17150       -3.5825668E-18
   27.33300       -3.5884183E-18
   27.49450       -3.5917750E-18
   27.65600       -3.5920099E-18
   27.81750       -3.5899440E-18
   27.97900       -3.5874376E-18
   28.14050       -3.5865038E-18
   28.30200       -3.5883467E-18
   28.46350       -3.5927763E-18
   28.62500       -3.5982787E-18
   28.78650       -3.6027091E-18
   28.94800       -3.6042832E-18
   29.10950       -3.6024092E-18
   29.27100       -3.5979718E-18
   29.43250       -3.5929471E-18
   29.59400       -3.5895445E-18
   29.75550       -3.5892781E-18
   29.91700       -3.5923813E-18
   30.07850       -3.5978018E-18
   30.24000       -3.6037455E-18
   30.40150       -3.6085035E-18
   30.56300       -3.6111872E-18
   30.72450       -3.6120674E-18
   30.88600       -3.6123813E-18
   31.04750       -3.6137205E-18
   31.20900       -3.6172695E-18
   31.37050       -3.6232326E-18
   31.53200       -3.6306955E-18
   31.69350       -3.6379714E-18
   31.85500       -3.6432926E-18
   32.01650       -3.6455434E-18
   32.17800       -3.6447290E-18
   32.33950       -3.6419675E-18
   32.50100       -3.6389975E-18
   32.66250       -3.6374080E-18
   32.82400       -3.6379254E-18
   32.98550       -3.6400893E-18
   33.14700       -3.6424836E-18
   33.30850       -3.6434254E-18
   33.47000       -3.6417967E-18
   33.63150       -3.6376119E-18
   33.79300       -3.6320520E-18
   33.95450       -3.6269347E-18
   34.11600       -3.6238853E-18
   34.27750       -3.6235987E-18
   34.43900       -3.6255570E-18
   34.60050       -3.6283293E-18
   34.76200       -3.6303030E-18
   34.92350       -3.6304812E-18
   35.08500       -3.6289580E-18
   35.24650       -3.6268412E-18
   35.40800       -3.6256898E-18
   35.56950       -3.6267436E-18
   35.73100       -3.6303394E-18
   35.89250       -3.6357735E-18
   36.05400       -3.6416527E-18
   36.21550       -3.6465389E-18
   36.37700       -3.6495713E-18
   36.53850       -3.6507906E-18
   36.70000       -3.6510404E-18
   36.86150       -3.6515131E-18
   37.02300       -3.6531654E-18
   37.18450       -3.6562628E-18
   37.34600       -3.6602556E-18
   37.50750       -3.6640263E-18
   37.66900       -3.6663941E-18
   37.83050       -3.6666534E-18
   37.99200       -3.6649060E-18
   38.15350       -3.6620460E-18
   38.31500       -3.6593978E-18
   38.47650       -3.6581450E-18
   38.63800       -3.6588122E-18
   38.79950       -3.6610183E-18
   38.96100       -3.6636479E-18
   39.12250       -3.6653763E-18
   39.28400       -3.6653167E-18
   39.44550       -3.6634816E-18
   39.60700       -3.6608197E-18
   39.76850       -3.6587886E-18
   39.93000       -3.6586649E-18
   40.09150       -3.6609190E-18
   40.25300       -3.6649705E-18
   40.41450       -3.6694481E-18
   40.57600       -3.6728378E-18
   40.73750       -3.6742043E-18
   40.89900       -3.6736303E-18
   41.06050       -3.6721579E-18
   41.22200       -3.6712633E-18
   41.38350       -3.6721227E-18
   41.54500       -3.6750352E-18
   41.70650       -3.6792774E-18
   41.86800       -3.6834477E-18
   42.02950       -3.6861170E-18
   42.19100       -3.6864685E-18
   42.35250       -3.6846413E-18
   42.51400       -3.6816349E-18
   42.67550       -3.6788461E-18
   42.83700       -3.6774597E-18
   42.99850       -3.6779631E-18
   43.16000       -3.6799805E-18
   43.32150       -3.6824910E-18
   43.48300       -3.6843137E-18
   43.64450       -3.6846624E-18
   43.80600       -3.6835130E-18
   43.96750       -3.6816440E-18
   44.12900       -3.6803230E-18
   44.29050       -3.6807697E-18
   44.45200       -3.6836156E-18
   44.61350       -3.6886056E-18
   44.77500       -3.6946626E-18
   44.93650       -3.7003226E-18
   45.09800       -3.7043526E-18
   45.25950       -3.7062750E-18
   45.42100       -3.7065421E-18
   45.58250       -3.7062799E-18
   45.74400       -3.7066989E-18
   45.90550       -3.7084715E-18
   46.06700       -3.7113812E-18
   46.22850       -3.7144169E-18
   46.39000       -3.7162706E-18
   46.55150       -3.7159865E-18
   46.71300       -3.7134383E-18
   46.87450       -3.7094087E-18
   47.03600       -3.7052315E-18
   47.19750       -3.7021796E-18
   47.35900       -3.7009181E-18
   47.52050       -3.7012705E-18
   47.68200       -3.7024013E-18
   47.84350       -3.7032955E-18
   48.00500       -3.7032760E-18
   48.16650       -3.7023086E-18
   48.32800       -3.7009669E-18
   48.48950       -3.7001158E-18
   48.65100       -3.7004773E-18
   48.81250       -3.7023057E-18
   48.97400       -3.7052919E-18
   49.13550       -3.7087234E-18
   49.29700       -3.7118055E-18
   49.45850       -3.7140000E-18
   49.62000       -3.7152284E-18
   49.78150       -3.7158711E-18
   49.94300       -3.7165717E-18
   50.10450       -3.7179324E-18
   50.26600       -3.7202316E-18
   50.42750       -3.7232863E-18
   50.58900       -3.7265082E-18
   50.75050       -3.7291440E-18
   50.91200       -3.7306069E-18
   51.07350       -3.7307417E-18
   51.23500       -3.7299121E-18
   51.39650       -3.7288314E-18
   51.55800       -3.7282159E-18
   51.71950       -3.7284207E-18
   51.88100       -3.7292425E-18
   52.04250       -3.7300221E-18
   52.20400       -3.7299981E-18
   52.36550       -3.7287437E-18
   52.52700       -3.7264565E-18
   52.68850       -3.7239378E-18
   52.85000       -3.7222511E-18
   53.01150       -3.7222160E-18
   53.17300       -3.7239998E-18
   53.33450       -3.7270107E-18
   53.49600       -3.7301739E-18
   53.65750       -3.7324544E-18
   53.81900       -3.7333701E-18
   53.98050       -3.7332291E-18
   54.14200       -3.7329689E-18
   54.30350       -3.7336778E-18
   54.46500       -3.7360311E-18
   54.62650       -3.7399300E-18
   54.78800       -3.7445126E-18
   54.94950       -3.7485323E-18
   55.11100       -3.7509291E-18
   55.27250       -3.7513158E-18
   55.43400       -3.7501677E-18
   55.59550       -3.7486126E-18
   55.75700       -3.7479260E-18
   55.91850       -3.7489434E-18
   56.08000       -3.7516669E-18
   56.24150       -3.7552345E-18
   56.40300       -3.7582902E-18
   56.56450       -3.7595781E-18
   56.72600       -3.7585180E-18
   56.88750       -3.7555063E-18
   57.04900       -3.7517914E-18
   57.21050       -3.7489624E-18
   57.37200       -3.7482631E-18
   57.53350       -3.7500225E-18
   57.69500       -3.7534851E-18
   57.85650       -3.7571371E-18
   58.01800       -3.7594064E-18
   58.17950       -3.7594329E-18
   58.34100       -3.7575296E-18
   58.50250       -3.7551055E-18
   58.66400       -3.7540401E-18
   58.82550       -3.7557867E-18
   58.98700       -3.7606203E-18
   59.14850       -3.7673953E-18
   59.31000       -3.7739677E-18
   59.47150       -3.7781036E-18
   59.63300       -3.7784779E-18
   59.79450       -3.7752821E-18
   59.95600       -3.7701445E-18
   60.11750       -3.7653878E-18
   60.27900       -3.7629608E-18
   60.44050       -3.7635485E-18
   60.60200       -3.7662836E-18
   60.76350       -3.7691862E-18
   60.92500       -3.7701325E-18
   61.08650       -3.7678892E-18
   61.24800       -3.7627437E-18
   61.40950       -3.7564253E-18
   61.57100       -3.7513642E-18
   61.73250       -3.7496192E-18
   61.89400       -3.7519523E-18
   62.05550       -3.7574799E-18
   62.21700       -3.7640457E-18
   62.37850       -3.7691622E-18
   62.54000       -3.7711028E-18
   62.70150       -3.7696680E-18
   62.86300       -3.7662861E-18
   63.02450       -3.7633976E-18
   63.18600       -3.7633773E-18
   63.34750       -3.7674549E-18
   63.50900       -3.7751138E-18
   63.67050       -3.7842475E-18
   63.83200       -3.7920416E-18
   63.99350       -3.7962040E-18
   64.15500       -3.7959972E-18
   64.31650       -3.7925925E-18
   64.47800       -3.7885459E-18
   64.63950       -3.7866128E-18
   64.80100       -3.7884281E-18
   64.96250       -3.7936753E-18
   65.12400       -3.8001641E-18
   65.28550       -3.8047980E-18
   65.44700       -3.8050234E-18
   65.60850       -3.8000661E-18
   65.77000       -3.7913728E-18
   65.93150       -3.7820195E-18
   66.09300       -3.7753458E-18
   66.25450       -3.7734590E-18
   66.41600       -3.7763140E-18
   66.57750       -3.7817953E-18
   66.73900       -3.7867580E-18
   66.90050       -3.7885253E-18
   67.06200       -3.7861326E-18
   67.22350       -3.7807498E-18
   67.38500       -3.7751001E-18
   67.54650       -3.7721682E-18
   67.70800       -3.7738002E-18
   67.86950       -3.7798527E-18
   68.03100       -3.7882523E-18
   68.19250       -3.7959347E-18
   68.35400       -3.8002199E-18
   68.51550       -3.8000003E-18
   68.67700       -3.7962160E-18
   68.83850       -3.7914158E-18
   69.00000       -3.7886009E-18
   69.16150       -3.7898756E-18
   69.32300       -3.7954897E-18
   69.48450       -3.8037115E-18
   69.64600       -3.8115808E-18
   69.80750       -3.8162358E-18
   69.96900       -3.8162035E-18
   70.13050       -3.8120759E-18
   70.29200       -3.8062364E-18
   70.45350       -3.8017622E-18
   70.61500       -3.8009876E-18
   70.77650       -3.8044121E-18
   70.93800       -3.8104720E-18
   71.09950       -3.8162983E-18
   71.26100       -3.8191032E-18
   71.42250       -3.8175394E-18
   71.58400       -3.8123663E-18
   71.74550       -3.8061099E-18
   71.90700       -3.8018598E-18
   72.06850       -3.8017982E-18
   72.23000       -3.8061678E-18
   72.39150       -3.8131703E-18
   72.55300       -3.8198390E-18
   72.71450       -3.8234405E-18
   72.87600       -3.8227288E-18
   73.03750       -3.8184742E-18
   73.19900       -3.8130354E-18
   73.36050       -3.8092168E-18
   73.52200       -3.8089624E-18
   73.68350       -3.8124924E-18
   73.84500       -3.8182591E-18
   74.00650       -3.8237094E-18
   74.16800       -3.8264842E-18
   74.32950       -3.8255027E-18
   74.49100       -3.8214462E-18
   74.65250       -3.8164418E-18
   74.81400       -3.8130958E-18
   74.97550       -3.8133097E-18
   75.13700       -3.8174141E-18
   75.29850       -3.8239927E-18
   75.46000       -3.8304952E-18
   75.62150       -3.8343850E-18
   75.78300       -3.8343068E-18
   75.94450       -3.8307367E-18
   76.10600       -3.8258034E-18
   76.26750       -3.8223119E-18
   76.42900       -3.8224215E-18
   76.59050       -3.8265809E-18
   76.75200       -3.8332666E-18
   76.91350       -3.8396587E-18
   77.07500       -3.8429707E-18
   77.23650       -3.8417866E-18
   77.39800       -3.8367590E-18
   77.55950       -3.8303095E-18
   77.72100       -3.8254671E-18
   77.88250       -3.8244125E-18
   78.04400       -3.8274247E-18
   78.20550       -3.8327649E-18
   78.36700       -3.8375345E-18
   78.52850       -3.8390788E-18
   78.69000       -3.8362581E-18
   78.85150       -3.8299666E-18
   79.01300       -3.8226870E-18
   79.17450       -3.8173240E-18
   79.33600       -3.8158859E-18
   79.49750       -3.8186293E-18
   79.65900       -3.8240283E-18
   79.82050       -3.8295336E-18
   79.98200       -3.8327492E-18
   80.14350       -3.8324862E-18
   80.30500       -3.8292428E-18
   80.46650       -3.8249315E-18
   80.62800       -3.8220046E-18
   80.78950       -3.8223636E-18
   80.95100       -3.8265259E-18
   81.11250       -3.8333903E-18
   81.27400       -3.8406993E-18
   81.43550       -3.8460023E-18
   81.59700       -3.8477142E-18
   81.75850       -3.8458145E-18
   81.92000       -3.8418730E-18
   82.08150       -3.8383641E-18
   82.24300       -3.8375601E-18
   82.40450       -3.8404896E-18
   82.56600       -3.8464569E-18
   82.72750       -3.8533440E-18
   82.88900       -3.8585862E-18
   83.05050       -3.8603589E-18
   83.21200       -3.8584183E-18
   83.37350       -3.8542108E-18
   83.53500       -3.8501870E-18
   83.69650       -3.8486749E-18
   83.85800       -3.8508318E-18
   84.01950       -3.8561655E-18
   84.18100       -3.8628263E-18
   84.34250       -3.8684917E-18
   84.50400       -3.8714042E-18
   84.66550       -3.8710903E-18
   84.82700       -3.8684570E-18
   84.98850       -3.8652855E-18
   85.15000       -3.8633880E-18
   85.31150       -3.8638223E-18
   85.47300       -3.8664825E-18
   85.63450       -3.8701953E-18
   85.79600       -3.8732472E-18
   85.95750       -3.8741083E-18
   86.11900       -3.8720647E-18
   86.28050       -3.8675202E-18
   86.44200       -3.8618540E-18
   86.60350       -3.8568810E-18
   86.76500       -3.8541236E-18
   86.92650       -3.8541765E-18
   87.08800       -3.8564380E-18
   87.24950       -3.8593596E-18
   87.41100       -3.8611178E-18
   87.57250       -3.8604490E-18
   87.73400       -3.8572569E-18
   87.89550       -3.8526950E-18
   88.05700       -3.8486547E-18
   88.21850       -3.8468833E-18
   88.38000       -3.8481530E-18
   88.54150       -3.8519018E-18
   88.70300       -3.8565174E-18
   88.86450       -3.8601413E-18
   89.02600       -3.8615674E-18
   89.18750       -3.8608006E-18
   89.34900       -3.8589986E-18
   89.51050       -3.8578517E-18
   89.67200       -3.8587272E-18
   89.83350       -3.8620132E-18
   89.99500       -3.8669722E-18
   90.15650       -3.8721338E-18
   90.31800       -3.8760153E-18
   90.47950       -3.8777847E-18
   90.64100       -3.8775733E-18
   90.80250       -3.8763214E-18
   90.96400       -3.8752766E-18
   91.12550       -3.8754086E-18
   91.28700       -3.8769910E-18
   91.44850       -3.8795317E-18
   91.61000       -3.8820310E-18
   91.77150       -3.8834504E-18
   91.93300       -3.8831845E-18
   92.09450       -3.8813428E-18
   92.25600       -3.8787256E-18
   92.41750       -3.8764901E-18
   92.57900       -3.8756427E-18
   92.74050       -3.8765675E-18
   92.90200       -3.8788170E-18
   93.06350       -3.8812886E-18
   93.22500       -3.8827312E-18
   93.38650       -3.8823730E-18
   93.54800       -3.8803477E-18
   93.70950       -3.8776945E-18
   93.87100       -3.8758805E-18
   94.03250       -3.8760716E-18
   94.19400       -3.8785134E-18
   94.35550       -3.8823565E-18
   94.51700       -3.8860552E-18
   94.67850       -3.8881546E-18
   94.84000       -3.8880553E-18
   95.00150       -3.8863584E-18
   95.16300       -3.8845791E-18
   95.32450       -3.8843665E-18
   95.48600       -3.8866305E-18
   95.64750       -3.8910278E-18
   95.80900       -3.8960732E-18
   95.97050       -3.8998365E-18
   96.13200       -3.9008762E-18
   96.29350       -3.8989526E-18
   96.45500       -3.8951666E-18
   96.61650       -3.8914716E-18
   96.77800       -3.8897871E-18
   96.93950       -3.8911246E-18
   97.10100       -3.8951319E-18
   97.26250       -3.9002418E-18
   97.42400       -3.9043624E-18
   97.58550       -3.9058046E-18
   97.74700       -3.9040410E-18
   97.90850       -3.8999709E-18
   98.07000       -3.8955575E-18
   98.23150       -3.8929775E-18
   98.39300       -3.8936227E-18
   98.55450       -3.8973996E-18
   98.71600       -3.9026696E-18
   98.87750       -3.9069101E-18
   99.03900       -3.9078552E-18
   99.20050       -3.9046060E-18
   99.36200       -3.8981867E-18
   99.52350       -3.8912106E-18
   99.68500       -3.8867583E-18
   99.84650       -3.8869391E-18
   100.0080       -3.8918310E-18
   100.1695       -3.8993397E-18
   100.3310       -3.9061065E-18
   100.4925       -3.9090690E-18
   100.6540       -3.9069490E-18
   100.8155       -3.9009188E-18
   100.9770       -3.8941000E-18
   101.1385       -3.8901109E-18
   101.3000       -3.8913496E-18
   101.4615       -3.8978405E-18
   101.6230       -3.9071963E-18
   101.7845       -3.9157225E-18
   101.9460       -3.9201198E-18
   102.1075       -3.9190006E-18
   102.2690       -3.9135011E-18
   102.4305       -3.9067376E-18
   102.5920       -3.9023689E-18
   102.7535       -3.9029314E-18
   102.9150       -3.9086910E-18
   103.0765       -3.9175187E-18
   103.2380       -3.9258223E-18
   103.3995       -3.9301200E-18
   103.5610       -3.9285719E-18
   103.7225       -3.9218068E-18
   103.8840       -3.9126847E-18
   104.0455       -3.9050849E-18
   104.2070       -3.9022237E-18
   104.3685       -3.9052284E-18
   104.5300       -3.9126077E-18
   104.6915       -3.9208713E-18
   104.8530       -3.9260825E-18
   105.0145       -3.9256557E-18
   105.1760       -3.9195854E-18
   105.3375       -3.9105137E-18
   105.4990       -3.9025583E-18
   105.6605       -3.8994171E-18
   105.8220       -3.9026150E-18
   105.9835       -3.9107420E-18
   106.1450       -3.9200623E-18
   106.3065       -3.9262351E-18
   106.4680       -3.9263422E-18
   106.6295       -3.9202670E-18
   106.7910       -3.9107631E-18
   106.9525       -3.9021881E-18
   107.1140       -3.8985018E-18
   107.2755       -3.9014813E-18
   107.4370       -3.9099711E-18
   107.5985       -3.9204903E-18
   107.7600       -3.9288734E-18
   107.9215       -3.9321536E-18
   108.0830       -3.9298362E-18
   108.2445       -3.9240129E-18
   108.4060       -3.9183149E-18
   108.5675       -3.9162200E-18
   108.7290       -3.9194787E-18
   108.8905       -3.9273609E-18
   109.0520       -3.9370133E-18
   109.2135       -3.9447495E-18
   109.3750       -3.9476901E-18
   109.5365       -3.9450344E-18
   109.6980       -3.9384079E-18
   109.8595       -3.9311395E-18
   110.0210       -3.9267798E-18
   110.1825       -3.9275152E-18
   110.3440       -3.9331752E-18
   110.5055       -3.9413076E-18
   110.6670       -3.9482944E-18
   110.8285       -3.9510224E-18
   110.9900       -3.9483299E-18
   111.1515       -3.9415524E-18
   111.3130       -3.9338878E-18
   111.4745       -3.9288854E-18
   111.6360       -3.9287659E-18
   111.7975       -3.9334018E-18
   111.9590       -3.9404299E-18
   112.1205       -3.9464481E-18
   112.2820       -3.9486761E-18
   112.4435       -3.9462740E-18
   112.6050       -3.9406793E-18
   112.7665       -3.9348138E-18
   112.9280       -3.9316101E-18
   113.0895       -3.9325837E-18
   113.2510       -3.9371667E-18
   113.4125       -3.9430703E-18
   113.5740       -3.9474593E-18
   113.7355       -3.9483113E-18
   113.8970       -3.9453087E-18
   114.0585       -3.9398770E-18
   114.2200       -3.9344110E-18
   114.3815       -3.9311213E-18
   114.5430       -3.9310580E-18
   114.7045       -3.9337434E-18
   114.8660       -3.9375290E-18
   115.0275       -3.9404618E-18
   115.1890       -3.9412236E-18
   115.3505       -3.9397177E-18
   115.5120       -3.9370526E-18
   115.6735       -3.9349677E-18
   115.8350       -3.9349714E-18
   115.9965       -3.9375948E-18
   116.1580       -3.9421029E-18
   116.3195       -3.9467968E-18
   116.4810       -3.9497763E-18
   116.6425       -3.9498213E-18
   116.8040       -3.9469709E-18
   116.9655       -3.9425107E-18
   117.1270       -3.9383632E-18
   117.2885       -3.9361592E-18
   117.4500       -3.9364578E-18
   117.6115       -3.9385187E-18
   117.7730       -3.9407534E-18
   117.9345       -3.9416265E-18
   118.0960       -3.9405321E-18
   118.2575       -3.9381713E-18
   118.4190       -3.9362155E-18
   118.5805       -3.9364235E-18
   118.7420       -3.9396847E-18