  -27.90000        5.8117532E-18
  -27.73850        5.8140404E-18
  -27.57700        5.8178185E-18
  -27.41550        5.8219734E-18
  -27.25400        5.8256424E-18
  -27.09250        5.8286016E-18
  -26.93100        5.8312449E-18
  -26.76950        5.8342083E-18
  -26.60800        5.8378871E-18
  -26.44650        5.8421480E-18
  -26.28500        5.8464117E-18
  -26.12350        5.8500293E-18
  -25.96200        5.8527019E-18
  -25.80050        5.8546764E-18
  -25.63900        5.8565818E-18
  -25.47750        5.8590228E-18
  -25.31600        5.8621856E-18
  -25.15450        5.8657222E-18
  -24.99300        5.8689904E-18
  -24.83150        5.8714843E-18
  -24.67000        5.8731763E-18
  -24.50850        5.8745374E-18
  -24.34700        5.8762203E-18
  -24.18550        5.8786196E-18
  -24.02400        5.8815904E-18
  -23.86250        5.8845240E-18
  -23.70100        5.8867297E-18
  -23.53950        5.8878881E-18
  -23.37800        5.8882844E-18
  -23.21650        5.8886653E-18
  -23.05500        5.8897969E-18
  -22.89350        5.8919943E-18
  -22.73200        5.8949068E-18
  -22.57050        5.8977097E-18
  -22.40900        5.8995899E-18
  -22.24750        5.9002346E-18
  -22.08600        5.9000171E-18
  -21.92450        5.8997677E-18
  -21.76300        5.9002768E-18
  -21.60150        5.9018323E-18
  -21.44000        5.9040814E-18
  -21.27850        5.9062784E-18
  -21.11700        5.9077533E-18
  -20.95550        5.9082988E-18
  -20.79400        5.9082550E-18
  -20.63250        5.9082422E-18
  -20.47100        5.9087443E-18
  -20.30950        5.9098130E-18
  -20.14800        5.9110782E-18
  -19.98650        5.9120567E-18
  -19.82500        5.9125427E-18
  -19.66350        5.9128190E-18
  -19.50200        5.9135216E-18
  -19.34050        5.9152364E-18
  -19.17900        5.9180848E-18
  -19.01750        5.9215738E-18
  -18.85600        5.9248218E-18
  -18.69450        5.9270361E-18
  -18.53300        5.9279411E-18
  -18.37150        5.9279030E-18
  -18.21000        5.9276714E-18
  -18.04850        5.9279063E-18
  -17.88700        5.9287931E-18
  -17.72550        5.9299697E-18
  -17.56400        5.9308151E-18
  -17.40250        5.9309106E-18
  -17.24100        5.9303742E-18
  -17.07950        5.9298543E-18
  -16.91800        5.9301732E-18
  -16.75650        5.9318334E-18
  -16.59500        5.9346954E-18
  -16.43350        5.9380372E-18
  -16.27200        5.9409460E-18
  -16.11050        5.9428138E-18
  -15.94900        5.9436240E-18
  -15.78750        5.9438684E-18
  -15.62600        5.9441708E-18
  -15.46450        5.9448681E-18
  -15.30300        5.9458326E-18
  -15.14150        5.9466200E-18
  -14.98000        5.9468471E-18
  -14.81850        5.9465253E-18
  -14.65700        5.9461279E-18
  -14.49550        5.9463313E-18
  -14.33400        5.9475957E-18
  -14.17250        5.9498427E-18
  -14.01100        5.9524674E-18
  -13.84950        5.9546838E-18
  -13.68800        5.9560044E-18
  -13.52650        5.9565508E-18
  -13.36500        5.9569892E-18
  -13.20350        5.9581265E-18
  -13.04200        5.9604145E-18
  -12.88050        5.9636765E-18
  -12.71900        5.9672251E-18
  -12.55750        5.9702906E-18
  -12.39600        5.9724955E-18
  -12.23450        5.9740729E-18
  -12.07300        5.9757029E-18
  -11.91150        5.9780703E-18
  -11.75000        5.9814199E-18
  -11.58850        5.9853883E-18
  -11.42700        5.9892078E-18
  -11.26550        5.9921572E-18
  -11.10400        5.9939720E-18
  -10.94250        5.9949543E-18
  -10.78100        5.9957149E-18
  -10.61950        5.9967286E-18
  -10.45800        5.9979892E-18
  -10.29650        5.9989984E-18
  -10.13500        5.9990939E-18
  -9.973500        5.9978978E-18
  -9.812000        5.9955875E-18
  -9.650500        5.9928160E-18
  -9.489000        5.9903307E-18
  -9.327500        5.9885341E-18
  -9.166000        5.9872768E-18
  -9.004500        5.9860079E-18
  -8.843000        5.9841964E-18
  -8.681500        5.9817479E-18
  -8.520000        5.9791493E-18
  -8.358500        5.9772278E-18
  -8.197000        5.9766694E-18
  -8.035500        5.9775926E-18
  -7.874000        5.9794566E-18
  -7.712500        5.9813695E-18
  -7.551000        5.9826193E-18
  -7.389500        5.9830954E-18
  -7.228000        5.9833369E-18
  -7.066500        5.9841902E-18
  -6.905000        5.9862833E-18
  -6.743500        5.9896566E-18
  -6.582000        5.9937590E-18
  -6.420500        5.9978064E-18
  -6.259000        6.0012640E-18
  -6.097500        6.0041418E-18
  -5.936000        6.0069306E-18
  -5.774500        6.0102191E-18
  -5.613000        6.0142478E-18
  -5.451500        6.0186935E-18
  -5.290000        6.0228249E-18
  -5.128500        6.0259355E-18
  -4.967000        6.0277809E-18
  -4.805500        6.0287227E-18
  -4.644000        6.0294944E-18
  -4.482500        6.0307290E-18
  -4.321000        6.0325653E-18
  -4.159500        6.0345779E-18
  -3.998000        6.0360846E-18
  -3.836500        6.0366165E-18
  -3.675000        6.0362566E-18
  -3.513500        6.0356172E-18
  -3.352000        6.0354696E-18
  -3.190500        6.0362546E-18
  -3.029000        6.0377935E-18
  -2.867500        6.0393730E-18
  -2.706000        6.0401758E-18
  -2.544500        6.0397821E-18
  -2.383000        6.0384354E-18
  -2.221500        6.0368969E-18
  -2.060000        6.0359766E-18
  -1.898500        6.0360407E-18
  -1.737000        6.0367989E-18
  -1.575500        6.0375144E-18
  -1.414000        6.0374920E-18
  -1.252500        6.0365308E-18
  -1.091000        6.0350572E-18
 -0.9295000        6.0338553E-18
 -0.7680000        6.0335786E-18
 -0.6065000        6.0343467E-18
 -0.4450000        6.0356884E-18
 -0.2835000        6.0368592E-18
 -0.1220000        6.0373254E-18
  3.9500002E-02    6.0371152E-18
  0.2010000        6.0368055E-18
  0.3625000        6.0371492E-18
  0.5240000        6.0385889E-18
  0.6855000        6.0409550E-18
  0.8470000        6.0435627E-18
   1.008500        6.0456385E-18
   1.170000        6.0468086E-18
   1.331500        6.0473347E-18
   1.493000        6.0479414E-18
   1.654500        6.0493538E-18
   1.816000        6.0518395E-18
   1.977500        6.0550394E-18
   2.139000        6.0581993E-18
   2.300500        6.0606386E-18
   2.462000        6.0621602E-18
   2.623500        6.0631483E-18
   2.785000        6.0642898E-18
   2.946500        6.0661059E-18
   3.108000        6.0685878E-18
   3.269500        6.0711773E-18
   3.431000        6.0731108E-18
   3.592500        6.0739074E-18
   3.754000        6.0736795E-18
   3.915500        6.0730757E-18
   4.077000        6.0728772E-18
   4.238500        6.0735128E-18
   4.400000        6.0748111E-18
   4.561500        6.0761354E-18
   4.723000        6.0768207E-18
   4.884500        6.0766185E-18
   5.046000        6.0758666E-18
   5.207500        6.0752789E-18
   5.369000        6.0754886E-18
   5.530500        6.0766346E-18
   5.692000        6.0782588E-18
   5.853500        6.0795790E-18
   6.015000        6.0799860E-18
   6.176500        6.0794293E-18
   6.338000        6.0784693E-18
   6.499500        6.0779350E-18
   6.661000        6.0784172E-18
   6.822500        6.0799086E-18
   6.984000        6.0818211E-18
   7.145500        6.0833695E-18
   7.307000        6.0840664E-18
   7.468500        6.0840135E-18
   7.630000        6.0838117E-18
   7.791500        6.0841583E-18
   7.953000        6.0853941E-18
   8.114500        6.0872912E-18
   8.276000        6.0892090E-18
   8.437500        6.0905172E-18
   8.599000        6.0910152E-18
   8.760500        6.0910722E-18
   8.922000        6.0913990E-18
   9.083500        6.0925943E-18
   9.245000        6.0947511E-18
   9.406500        6.0973824E-18
   9.568000        6.0997188E-18
   9.729500        6.1011854E-18
   9.891000        6.1017507E-18
   10.05250        6.1019211E-18
   10.21400        6.1023930E-18
   10.37550        6.1035862E-18
   10.53700        6.1053688E-18
   10.69850        6.1071369E-18
   10.86000        6.1082044E-18
   11.02150        6.1082408E-18
   11.18300        6.1074864E-18
   11.34450        6.1066030E-18
   11.50600        6.1062543E-18
   11.66750        6.1066844E-18
   11.82900        6.1075604E-18
   11.99050        6.1081916E-18
   12.15200        6.1079852E-18
   12.31350        6.1068470E-18
   12.47500        6.1052687E-18
   12.63650        6.1040375E-18
   12.79800        6.1037583E-18
   12.95950        6.1044974E-18
   13.12100        6.1057704E-18
   13.28250        6.1068850E-18
   13.44400        6.1074053E-18
   13.60550        6.1074438E-18
   13.76700        6.1075902E-18
   13.92850        6.1085212E-18
   14.09000        6.1105350E-18
   14.25150        6.1133097E-18
   14.41300        6.1160394E-18
   14.57450        6.1178803E-18
   14.73600        6.1184317E-18
   14.89750        6.1179610E-18
   15.05900        6.1172327E-18
   15.22050        6.1170395E-18
   15.38200        6.1177430E-18
   15.54350        6.1190926E-18
   15.70500        6.1204338E-18
   15.86650        6.1211585E-18
   16.02800        6.1210981E-18
   16.18950        6.1206241E-18
   16.35100        6.1203991E-18
   16.51250        6.1209550E-18
   16.67400        6.1223686E-18
   16.83550        6.1242380E-18
   16.99700        6.1259561E-18
   17.15850        6.1271046E-18
   17.32000        6.1277031E-18
   17.48150        6.1281552E-18
   17.64300        6.1289385E-18
   17.80450        6.1302442E-18
   17.96600        6.1318216E-18
   18.12750        6.1331402E-18
   18.28900        6.1337639E-18
   18.45050        6.1336894E-18
   18.61200        6.1334024E-18
   18.77350        6.1335959E-18
   18.93500        6.1347271E-18
   19.09650        6.1366900E-18
   19.25800        6.1388295E-18
   19.41950        6.1402998E-18
   19.58100        6.1405600E-18
   19.74250        6.1397018E-18
   19.90400        6.1384031E-18
   20.06550        6.1375341E-18
   20.22700        6.1376330E-18
   20.38850        6.1385785E-18
   20.55000        6.1396592E-18
   20.71150        6.1400091E-18
   20.87300        6.1391393E-18
   21.03450        6.1372604E-18
   21.19600        6.1351825E-18
   21.35750        6.1338735E-18
   21.51900        6.1339376E-18
   21.68050        6.1353268E-18
   21.84200        6.1374386E-18
   22.00350        6.1395144E-18
   22.16500        6.1410765E-18
   22.32650        6.1421453E-18
   22.48800        6.1431226E-18
   22.64950        6.1444564E-18
   22.81100        6.1463068E-18
   22.97250        6.1484393E-18
   23.13400        6.1503902E-18
   23.29550        6.1517902E-18
   23.45700        6.1525988E-18
   23.61850        6.1531042E-18
   23.78000        6.1536691E-18
   23.94150        6.1544243E-18
   24.10300        6.1551212E-18
   24.26450        6.1552759E-18
   24.42600        6.1545149E-18
   24.58750        6.1528945E-18
   24.74900        6.1509576E-18
   24.91050        6.1494691E-18
   25.07200        6.1489699E-18
   25.23350        6.1494352E-18
   25.39500        6.1502541E-18
   25.55650        6.1505738E-18
   25.71800        6.1498103E-18
   25.87950        6.1480331E-18
   26.04100        6.1459776E-18
   26.20250        6.1446615E-18
   26.36400        6.1448249E-18
   26.52550        6.1465136E-18
   26.68700        6.1490704E-18
   26.84850        6.1515267E-18
   27.01000        6.1531658E-18
   27.17150        6.1539239E-18
   27.33300        6.1543784E-18
   27.49450        6.1553562E-18
   27.65600        6.1574030E-18
   27.81750        6.1604301E-18
   27.97900        6.1637454E-18
   28.14050        6.1664259E-18
   28.30200        6.1678040E-18
   28.46350        6.1677771E-18
   28.62500        6.1667833E-18
   28.78650        6.1654895E-18
   28.94800        6.1644043E-18
   29.10950        6.1636582E-18
   29.27100        6.1630729E-18
   29.43250        6.1624294E-18
   29.59400        6.1617300E-18
   29.75550        6.1612564E-18
   29.91700        6.1613842E-18
   30.07850        6.1622912E-18
   30.24000        6.1637827E-18
   30.40150        6.1653679E-18
   30.56300        6.1665599E-18
   30.72450        6.1671873E-18
   30.88600        6.1675165E-18
   31.04750        6.1680712E-18
   31.20900        6.1692673E-18
   31.37050        6.1710867E-18
   31.53200        6.1730169E-18
   31.69350        6.1743214E-18
   31.85500        6.1744889E-18
   32.01650        6.1735951E-18
   32.17800        6.1723283E-18
   32.33950        6.1716388E-18
   32.50100        6.1722042E-18
   32.66250        6.1740265E-18
   32.82400        6.1764125E-18
   32.98550        6.1783654E-18
   33.14700        6.1791554E-18
   33.30850        6.1787248E-18
   33.47000        6.1777041E-18
   33.63150        6.1770200E-18
   33.79300        6.1773414E-18
   33.95450        6.1786955E-18
   34.11600        6.1804611E-18
   34.27750        6.1817383E-18
   34.43900        6.1818607E-18
   34.60050        6.1807485E-18
   34.76200        6.1789130E-18
   34.92350        6.1771271E-18
   35.08500        6.1759943E-18
   35.24650        6.1756663E-18
   35.40800        6.1758789E-18
   35.56950        6.1762338E-18
   35.73100        6.1765179E-18
   35.89250        6.1768352E-18
   36.05400        6.1774737E-18
   36.21550        6.1786285E-18
   36.37700        6.1801939E-18
   36.53850        6.1817809E-18
   36.70000        6.1829600E-18
   36.86150        6.1835568E-18
   37.02300        6.1837975E-18
   37.18450        6.1841822E-18
   37.34600        6.1851529E-18
   37.50750        6.1867684E-18
   37.66900        6.1886084E-18
   37.83050        6.1899882E-18
   37.99200        6.1903720E-18
   38.15350        6.1897309E-18
   38.31500        6.1886051E-18
   38.47650        6.1877978E-18
   38.63800        6.1878842E-18
   38.79950        6.1888301E-18
   38.96100        6.1899687E-18
   39.12250        6.1903687E-18
   39.28400        6.1893736E-18
   39.44550        6.1870074E-18
   39.60700        6.1839911E-18
   39.76850        6.1813789E-18
   39.93000        6.1800144E-18
   40.09150        6.1801277E-18
   40.25300        6.1812945E-18
   40.41450        6.1827557E-18
   40.57600        6.1838889E-18
   40.73750        6.1845515E-18
   40.89900        6.1850883E-18
   41.06050        6.1860342E-18
   41.22200        6.1877167E-18
   41.38350        6.1900283E-18
   41.54500        6.1925073E-18
   41.70650        6.1946506E-18
   41.86800        6.1962371E-18
   42.02950        6.1974423E-18
   42.19100        6.1986673E-18
   42.35250        6.2002138E-18
   42.51400        6.2020323E-18
   42.67550        6.2037194E-18
   42.83700        6.2047748E-18
   42.99850        6.2049490E-18
   43.16000        6.2044522E-18
   43.32150        6.2038724E-18
   43.48300        6.2038318E-18
   43.64450        6.2046020E-18
   43.80600        6.2059176E-18
   43.96750        6.2071257E-18
   44.12900        6.2075988E-18
   44.29050        6.2071497E-18
   44.45200        6.2061868E-18
   44.61350        6.2054961E-18
   44.77500        6.2057749E-18
   44.93650        6.2072026E-18
   45.09800        6.2093107E-18
   45.25950        6.2112289E-18
   45.42100        6.2121632E-18
   45.58250        6.2118162E-18
   45.74400        6.2105200E-18
   45.90550        6.2090050E-18
   46.06700        6.2079669E-18
   46.22850        6.2076911E-18
   46.39000        6.2079537E-18
   46.55150        6.2082440E-18
   46.71300        6.2081468E-18
   46.87450        6.2076228E-18
   47.03600        6.2070190E-18
   47.19750        6.2068018E-18
   47.35900        6.2072212E-18
   47.52050        6.2081282E-18
   47.68200        6.2090799E-18
   47.84350        6.2096444E-18
   48.00500        6.2097036E-18
   48.16650        6.2095353E-18
   48.32800        6.2096163E-18
   48.48950        6.2102743E-18
   48.65100        6.2114225E-18
   48.81250        6.2125536E-18
   48.97400        6.2130305E-18
   49.13550        6.2124928E-18
   49.29700        6.2111247E-18
   49.45850        6.2096006E-18
   49.62000        6.2087163E-18
   49.78150        6.2089207E-18
   49.94300        6.2100452E-18
   50.10450        6.2113923E-18
   50.26600        6.2121636E-18
   50.42750        6.2119461E-18
   50.58900        6.2109721E-18
   50.75050        6.2099790E-18
   50.91200        6.2097689E-18
   51.07350        6.2107161E-18
   51.23500        6.2125313E-18
   51.39650        6.2144123E-18
   51.55800        6.2154897E-18
   51.71950        6.2152991E-18
   51.88100        6.2140182E-18
   52.04250        6.2123253E-18
   52.20400        6.2109985E-18
   52.36550        6.2104911E-18
   52.52700        6.2107520E-18
   52.68850        6.2113658E-18
   52.85000        6.2118998E-18
   53.01150        6.2122141E-18
   53.17300        6.2125206E-18
   53.33450        6.2131848E-18
   53.49600        6.2144061E-18
   53.65750        6.2160232E-18
   53.81900        6.2175763E-18
   53.98050        6.2185817E-18
   54.14200        6.2188410E-18
   54.30350        6.2185710E-18
   54.46500        6.2182583E-18
   54.62650        6.2183385E-18
   54.78800        6.2189018E-18
   54.94950        6.2196364E-18
   55.11100        6.2200566E-18
   55.27250        6.2198796E-18
   55.43400        6.2192993E-18
   55.59550        6.2189556E-18
   55.75700        6.2195876E-18
   55.91850        6.2215711E-18
   56.08000        6.2246325E-18
   56.24150        6.2279297E-18
   56.40300        6.2304803E-18
   56.56450        6.2316776E-18
   56.72600        6.2316020E-18
   56.88750        6.2309361E-18
   57.04900        6.2305477E-18
   57.21050        6.2309791E-18
   57.37200        6.2321520E-18
   57.53350        6.2334511E-18
   57.69500        6.2341244E-18
   57.85650        6.2337427E-18
   58.01800        6.2324527E-18
   58.17950        6.2308571E-18
   58.34100        6.2296275E-18
   58.50250        6.2290923E-18
   58.66400        6.2290654E-18
   58.82550        6.2290071E-18
   58.98700        6.2283966E-18
   59.14850        6.2270653E-18
   59.31000        6.2252715E-18
   59.47150        6.2234923E-18
   59.63300        6.2220910E-18
   59.79450        6.2210856E-18
   59.95600        6.2201918E-18
   60.11750        6.2190892E-18
   60.27900        6.2177396E-18
   60.44050        6.2165208E-18
   60.60200        6.2160683E-18
   60.76350        6.2169149E-18
   60.92500        6.2191446E-18
   61.08650        6.2223003E-18
   61.24800        6.2256173E-18
   61.40950        6.2284562E-18
   61.57100        6.2306590E-18
   61.73250        6.2325991E-18
   61.89400        6.2348834E-18
   62.05550        6.2378939E-18
   62.21700        6.2414528E-18
   62.37850        6.2448319E-18
   62.54000        6.2471037E-18
   62.70150        6.2476240E-18
   62.86300        6.2463601E-18
   63.02450        6.2438831E-18
   63.18600        6.2410393E-18
   63.34750        6.2385155E-18
   63.50900        6.2365510E-18
   63.67050        6.2349644E-18
   63.83200        6.2334379E-18
   63.99350        6.2318513E-18
   64.15500        6.2304323E-18
   64.31650        6.2296209E-18
   64.47800        6.2297499E-18
   64.63950        6.2307731E-18
   64.80100        6.2322430E-18
   64.96250        6.2335653E-18
   65.12400        6.2343631E-18
   65.28550        6.2347084E-18
   65.44700        6.2350517E-18
   65.60850        6.2358930E-18
   65.77000        6.2374021E-18
   65.93150        6.2392422E-18
   66.09300        6.2407303E-18
   66.25450        6.2412452E-18
   66.41600        6.2406393E-18
   66.57750        6.2393878E-18
   66.73900        6.2383580E-18
   66.90050        6.2383120E-18
   67.06200        6.2394370E-18
   67.22350        6.2411857E-18
   67.38500        6.2425410E-18
   67.54650        6.2425588E-18
   67.70800        6.2408804E-18
   67.86950        6.2379229E-18
   68.03100        6.2346621E-18
   68.19250        6.2321355E-18
   68.35400        6.2309663E-18
   68.51550        6.2311536E-18
   68.67700        6.2322029E-18
   68.83850        6.2334817E-18
   69.00000        6.2345666E-18
   69.16150        6.2353863E-18
   69.32300        6.2361382E-18
   69.48450        6.2370601E-18
   69.64600        6.2382541E-18
   69.80750        6.2396666E-18
   69.96900        6.2412051E-18
   70.13050        6.2428715E-18
   70.29200        6.2447674E-18
   70.45350        6.2469540E-18
   70.61500        6.2492685E-18
   70.77650        6.2512665E-18
   70.93800        6.2523931E-18
   71.09950        6.2523030E-18
   71.26100        6.2511412E-18
   71.42250        6.2495679E-18
   71.58400        6.2484665E-18
   71.74550        6.2484595E-18
   71.90700        6.2495083E-18
   72.06850        6.2508546E-18
   72.23000        6.2513699E-18
   72.39150        6.2501651E-18
   72.55300        6.2471219E-18
   72.71450        6.2430373E-18
   72.87600        6.2392687E-18
   73.03750        6.2370531E-18
   73.19900        6.2368562E-18
   73.36050        6.2381288E-18
   73.52200        6.2395880E-18
   73.68350        6.2398829E-18
   73.84500        6.2382823E-18
   74.00650        6.2350215E-18
   74.16800        6.2311644E-18
   74.32950        6.2280782E-18
   74.49100        6.2268258E-18
   74.65250        6.2277754E-18
   74.81400        6.2305829E-18
   74.97550        6.2344818E-18
   75.13700        6.2386884E-18
   75.29850        6.2426887E-18
   75.46000        6.2463051E-18
   75.62150        6.2495778E-18
   75.78300        6.2526003E-18
   75.94450        6.2554314E-18
   76.10600        6.2580974E-18
   76.26750        6.2606257E-18
   76.42900        6.2630059E-18
   76.59050        6.2650941E-18
   76.75200        6.2665268E-18
   76.91350        6.2667786E-18
   77.07500        6.2653890E-18
   77.23650        6.2622771E-18
   77.39800        6.2579452E-18
   77.55950        6.2534081E-18
   77.72100        6.2498165E-18
   77.88250        6.2479338E-18
   78.04400        6.2477361E-18
   78.20550        6.2483817E-18
   78.36700        6.2486117E-18
   78.52850        6.2474077E-18
   78.69000        6.2445659E-18
   78.85150        6.2408689E-18
   79.01300        6.2377347E-18
   79.17450        6.2365245E-18
   79.33600        6.2378575E-18
   79.49750        6.2412986E-18
   79.65900        6.2455726E-18
   79.82050        6.2491713E-18
   79.98200        6.2510275E-18
   80.14350        6.2509208E-18
   80.30500        6.2494496E-18
   80.46650        6.2476389E-18
   80.62800        6.2464143E-18
   80.78950        6.2462257E-18
   80.95100        6.2469627E-18
   81.11250        6.2481394E-18
   81.27400        6.2491986E-18
   81.43550        6.2497486E-18
   81.59700        6.2496432E-18
   81.75850        6.2489401E-18
   81.92000        6.2478242E-18
   82.08150        6.2465793E-18
   82.24300        6.2455834E-18
   82.40450        6.2452612E-18
   82.56600        6.2459432E-18
   82.72750        6.2476675E-18
   82.88900        6.2500481E-18
   83.05050        6.2523385E-18
   83.21200        6.2537208E-18
   83.37350        6.2536993E-18
   83.53500        6.2524018E-18
   83.69650        6.2505911E-18
   83.85800        6.2493334E-18
   84.01950        6.2494608E-18
   84.18100        6.2511019E-18
   84.34250        6.2535442E-18
   84.50400        6.2555319E-18
   84.66550        6.2558673E-18
   84.82700        6.2540206E-18
   84.98850        6.2504108E-18
   85.15000        6.2462302E-18
   85.31150        6.2428930E-18
   85.47300        6.2414165E-18
   85.63450        6.2420248E-18
   85.79600        6.2441495E-18
   85.95750        6.2467758E-18
   86.11900        6.2489285E-18
   86.28050        6.2500547E-18
   86.44200        6.2501469E-18
   86.60350        6.2496217E-18
   86.76500        6.2490604E-18
   86.92650        6.2489694E-18
   87.08800        6.2496498E-18
   87.24950        6.2511722E-18
   87.41100        6.2533920E-18
   87.57250        6.2559616E-18
   87.73400        6.2583505E-18
   87.89550        6.2599345E-18
   88.05700        6.2601943E-18
   88.21850        6.2589630E-18
   88.38000        6.2565973E-18
   88.54150        6.2539180E-18
   88.70300        6.2518972E-18
   88.86450        6.2512041E-18
   89.02600        6.2518460E-18
   89.18750        6.2531161E-18
   89.34900        6.2539127E-18
   89.51050        6.2533084E-18
   89.67200        6.2510796E-18
   89.83350        6.2479123E-18
   89.99500        6.2451429E-18
   90.15650        6.2441424E-18
   90.31800        6.2456363E-18
   90.47950        6.2493173E-18
   90.64100        6.2539458E-18
   90.80250        6.2578993E-18
   90.96400        6.2598849E-18
   91.12550        6.2594664E-18
   91.28700        6.2571796E-18
   91.44850        6.2542129E-18
   91.61000        6.2518476E-18
   91.77150        6.2509332E-18
   91.93300        6.2516115E-18
   92.09450        6.2533725E-18
   92.25600        6.2553466E-18
   92.41750        6.2566899E-18
   92.57900        6.2568847E-18
   92.74050        6.2558776E-18
   92.90200        6.2540533E-18
   93.06350        6.2520896E-18
   93.22500        6.2507470E-18
   93.38650        6.2506329E-18
   93.54800        6.2519804E-18
   93.70950        6.2545091E-18
   93.87100        6.2574394E-18
   94.03250        6.2597286E-18
   94.19400        6.2604689E-18
   94.35550        6.2593059E-18
   94.51700        6.2566651E-18
   94.67850        6.2536352E-18
   94.84000        6.2515209E-18
   95.00150        6.2512417E-18
   95.16300        6.2528721E-18
   95.32450        6.2555592E-18
   95.48600        6.2578947E-18
   95.64750        6.2585800E-18
   95.80900        6.2570655E-18
   95.97050        6.2538506E-18
   96.13200        6.2502603E-18
   96.29350        6.2478197E-18
   96.45500        6.2475256E-18
   96.61650        6.2493859E-18
   96.77800        6.2524448E-18
   96.93950        6.2552664E-18
   97.10100        6.2566180E-18
   97.26250        6.2560104E-18
   97.42400        6.2538610E-18
   97.58550        6.2512289E-18
   97.74700        6.2492970E-18
   97.90850        6.2488507E-18
   98.07000        6.2499943E-18
   98.23150        6.2521851E-18
   98.39300        6.2545289E-18
   98.55450        6.2561634E-18
   98.71600        6.2565584E-18
   98.87750        6.2556431E-18
   99.03900        6.2537580E-18
   99.20050        6.2515035E-18
   99.36200        6.2495526E-18
   99.52350        6.2484727E-18
   99.68500        6.2485724E-18
   99.84650        6.2498032E-18
   100.0080        6.2517620E-18
   100.1695        6.2538246E-18
   100.3310        6.2553929E-18
   100.4925        6.2561593E-18
   100.6540        6.2562718E-18
   100.8155        6.2562879E-18
   100.9770        6.2569129E-18
   101.1385        6.2586272E-18
   101.3000        6.2613800E-18
   101.4615        6.2645163E-18
   101.6230        6.2670102E-18
   101.7845        6.2679123E-18
   101.9460        6.2667881E-18
   102.1075        6.2639402E-18
   102.2690        6.2602708E-18
   102.4305        6.2568674E-18
   102.5920        6.2545198E-18
   102.7535        6.2534143E-18
   102.9150        6.2531471E-18
   103.0765        6.2530226E-18
   103.2380        6.2524568E-18
   103.3995        6.2512707E-18
   103.5610        6.2497441E-18
   103.7225        6.2484322E-18
   103.8840        6.2478722E-18
   104.0455        6.2483466E-18
   104.2070        6.2498074E-18
   104.3685        6.2519676E-18
   104.5300        6.2544623E-18
   104.6915        6.2569745E-18
   104.8530        6.2592616E-18
   105.0145        6.2611178E-18
   105.1760        6.2623487E-18
   105.3375        6.2628235E-18
   105.4990        6.2625691E-18
   105.6605        6.2618329E-18
   105.8220        6.2610235E-18
   105.9835        6.2605285E-18
   106.1450        6.2604966E-18
   106.3065        6.2607241E-18
   106.4680        6.2607303E-18
   106.6295        6.2600135E-18
   106.7910        6.2583579E-18
   106.9525        6.2560158E-18
   107.1140        6.2536517E-18
   107.2755        6.2520478E-18
   107.4370        6.2517157E-18
   107.5985        6.2526289E-18
   107.7600        6.2542196E-18
   107.9215        6.2556609E-18
   108.0830        6.2562743E-18
   108.2445        6.2558458E-18
   108.4060        6.2546910E-18
   108.5675        6.2534511E-18
   108.7290        6.2527517E-18
   108.8905        6.2529126E-18
   109.0520        6.2538428E-18
   109.2135        6.2551323E-18
   109.3750        6.2562784E-18
   109.5365        6.2568996E-18
   109.6980        6.2568632E-18
   109.8595        6.2562838E-18
   110.0210        6.2554454E-18
   110.1825        6.2547076E-18
   110.3440        6.2544230E-18
   110.5055        6.2548747E-18
   110.6670        6.2561969E-18
   110.8285        6.2582839E-18
   110.9900        6.2607472E-18
   111.1515        6.2629794E-18
   111.3130        6.2643600E-18
   111.4745        6.2645328E-18
   111.6360        6.2636118E-18
   111.7975        6.2621725E-18
   111.9590        6.2610016E-18
   112.1205        6.2606984E-18
   112.2820        6.2613391E-18
   112.4435        6.2623979E-18
   112.6050        6.2629811E-18
   112.7665        6.2622866E-18
   112.9280        6.2600466E-18
   113.0895        6.2567176E-18
   113.2510        6.2533068E-18
   113.4125        6.2509042E-18
   113.5740        6.2501618E-18
   113.7355        6.2509940E-18
   113.8970        6.2526496E-18
   114.0585        6.2541162E-18
   114.2200        6.2546195E-18
   114.3815        6.2539842E-18
   114.5430        6.2526698E-18
   114.7045        6.2515110E-18
   114.8660        6.2513050E-18
   115.0275        6.2524498E-18
   115.1890        6.2547887E-18
   115.3505        6.2576912E-18
   115.5120        6.2603188E-18
   115.6735        6.2619334E-18
   115.8350        6.2621460E-18
   115.9965        6.2610231E-18
   116.1580        6.2590453E-18
   116.3195        6.2569443E-18
   116.4810        6.2554703E-18
   116.6425        6.2551369E-18
   116.8040        6.2560253E-18
   116.9655        6.2577160E-18
   117.1270        6.2594200E-18
   117.2885        6.2602960E-18
   117.4500        6.2598324E-18
   117.6115        6.2581313E-18
   117.7730        6.2559165E-18
   117.9345        6.2542344E-18
   118.0960        6.2539582E-18
   118.2575        6.2553309E-18
   118.4190        6.2577921E-18
   118.5805        6.2601930E-18
   118.7420        6.2613279E-18