  -27.90000        8.8202724E-18
  -27.73850        8.8488200E-18
  -27.57700        8.8961323E-18
  -27.41550        8.9471586E-18
  -27.25400        8.9874861E-18
  -27.09250        9.0089043E-18
  -26.93100        9.0123818E-18
  -26.76950        9.0072524E-18
  -26.60800        9.0069943E-18
  -26.44650        9.0233568E-18
  -26.28500        9.0612565E-18
  -26.12350        9.1165536E-18
  -25.96200        9.1776003E-18
  -25.80050        9.2299212E-18
  -25.63900        9.2620985E-18
  -25.47750        9.2704191E-18
  -25.31600        9.2604094E-18
  -25.15450        9.2446028E-18
  -24.99300        9.2374890E-18
  -24.83150        9.2496891E-18
  -24.67000        9.2837450E-18
  -24.50850        9.3332129E-18
  -24.34700        9.3854038E-18
  -24.18550        9.4266214E-18
  -24.02400        9.4477368E-18
  -23.86250        9.4478419E-18
  -23.70100        9.4344962E-18
  -23.53950        9.4205317E-18
  -23.37800        9.4187499E-18
  -23.21650        9.4367014E-18
  -23.05500        9.4736814E-18
  -22.89350        9.5211326E-18
  -22.73200        9.5662387E-18
  -22.57050        9.5972051E-18
  -22.40900        9.6080436E-18
  -22.24750        9.6009133E-18
  -22.08600        9.5851018E-18
  -21.92450        9.5731184E-18
  -21.76300        9.5755321E-18
  -21.60150        9.5966848E-18
  -21.44000        9.6330129E-18
  -21.27850        9.6746201E-18
  -21.11700        9.7094005E-18
  -20.95550        9.7280055E-18
  -20.79400        9.7276018E-18
  -20.63250        9.7129334E-18
  -20.47100        9.6942929E-18
  -20.30950        9.6833005E-18
  -20.14800        9.6882313E-18
  -19.98650        9.7108043E-18
  -19.82500        9.7456873E-18
  -19.66350        9.7828542E-18
  -19.50200        9.8117583E-18
  -19.34050        9.8255855E-18
  -19.17900        9.8238476E-18
  -19.01750        9.8123208E-18
  -18.85600        9.8004359E-18
  -18.69450        9.7972521E-18
  -18.53300        9.8077159E-18
  -18.37150        9.8307330E-18
  -18.21000        9.8597778E-18
  -18.04850        9.8857298E-18
  -17.88700        9.9007084E-18
  -17.72550        9.9012990E-18
  -17.56400        9.8898839E-18
  -17.40250        9.8735744E-18
  -17.24100        9.8612668E-18
  -17.07950        9.8600673E-18
  -16.91800        9.8725644E-18
  -16.75650        9.8960067E-18
  -16.59500        9.9236486E-18
  -16.43350        9.9476120E-18
  -16.27200        9.9620529E-18
  -16.11050        9.9653145E-18
  -15.94900        9.9602654E-18
  -15.78750        9.9527736E-18
  -15.62600        9.9490530E-18
  -15.46450        9.9530259E-18
  -15.30300        9.9648157E-18
  -15.14150        9.9809110E-18
  -14.98000        9.9958672E-18
  -14.81850        1.0004759E-17
  -14.65700        1.0005318E-17
  -14.49550        9.9988774E-18
  -14.33400        9.9897957E-18
  -14.17250        9.9836556E-18
  -14.01100        9.9850477E-18
  -13.84950        9.9958697E-18
  -13.68800        1.0014807E-17
  -13.52650        1.0038122E-17
  -13.36500        1.0061337E-17
  -13.20350        1.0081038E-17
  -13.04200        1.0096033E-17
  -12.88050        1.0107443E-17
  -12.71900        1.0117767E-17
  -12.55750        1.0129440E-17
  -12.39600        1.0143566E-17
  -12.23450        1.0159381E-17
  -12.07300        1.0174667E-17
  -11.91150        1.0186833E-17
  -11.75000        1.0194134E-17
  -11.58850        1.0196462E-17
  -11.42700        1.0195331E-17
  -11.26550        1.0193125E-17
  -11.10400        1.0191998E-17
  -10.94250        1.0192946E-17
  -10.78100        1.0195521E-17
  -10.61950        1.0198279E-17
  -10.45800        1.0199718E-17
  -10.29650        1.0199229E-17
  -10.13500        1.0197559E-17
  -9.973500        1.0196559E-17
  -9.812000        1.0198306E-17
  -9.650500        1.0204055E-17
  -9.489000        1.0213518E-17
  -9.327500        1.0224889E-17
  -9.166000        1.0235631E-17
  -9.004500        1.0243686E-17
  -8.843000        1.0248554E-17
  -8.681500        1.0251684E-17
  -8.520000        1.0255946E-17
  -8.358500        1.0264351E-17
  -8.197000        1.0278569E-17
  -8.035500        1.0297928E-17
  -7.874000        1.0319405E-17
  -7.712500        1.0338695E-17
  -7.551000        1.0351957E-17
  -7.389500        1.0357509E-17
  -7.228000        1.0356702E-17
  -7.066500        1.0353529E-17
  -6.905000        1.0353065E-17
  -6.743500        1.0359335E-17
  -6.582000        1.0373540E-17
  -6.420500        1.0393417E-17
  -6.259000        1.0414104E-17
  -6.097500        1.0430196E-17
  -5.936000        1.0438162E-17
  -5.774500        1.0438073E-17
  -5.613000        1.0433837E-17
  -5.451500        1.0431756E-17
  -5.290000        1.0437918E-17
  -5.128500        1.0455504E-17
  -4.967000        1.0483164E-17
  -4.805500        1.0515220E-17
  -4.644000        1.0543712E-17
  -4.482500        1.0561518E-17
  -4.321000        1.0565272E-17
  -4.159500        1.0556842E-17
  -3.998000        1.0542700E-17
  -3.836500        1.0531369E-17
  -3.675000        1.0529961E-17
  -3.513500        1.0541232E-17
  -3.352000        1.0562408E-17
  -3.190500        1.0586323E-17
  -3.029000        1.0604446E-17
  -2.867500        1.0610575E-17
  -2.706000        1.0603640E-17
  -2.544500        1.0588417E-17
  -2.383000        1.0573763E-17
  -2.221500        1.0569051E-17
  -2.060000        1.0580246E-17
  -1.898500        1.0607239E-17
  -1.737000        1.0643628E-17
  -1.575500        1.0679075E-17
  -1.414000        1.0703365E-17
  -1.252500        1.0710528E-17
  -1.091000        1.0701322E-17
 -0.9295000        1.0683014E-17
 -0.7680000        1.0666501E-17
 -0.6065000        1.0661889E-17
 -0.4450000        1.0674343E-17
 -0.2835000        1.0701912E-17
 -0.1220000        1.0736276E-17
  3.9500002E-02    1.0766144E-17
  0.2010000        1.0781954E-17
  0.3625000        1.0779916E-17
  0.5240000        1.0763734E-17
  0.6855000        1.0743232E-17
  0.8470000        1.0730387E-17
   1.008500        1.0734401E-17
   1.170000        1.0757799E-17
   1.331500        1.0795217E-17
   1.493000        1.0835430E-17
   1.654500        1.0865814E-17
   1.816000        1.0877465E-17
   1.977500        1.0868855E-17
   2.139000        1.0846515E-17
   2.300500        1.0822422E-17
   2.462000        1.0809140E-17
   2.623500        1.0814680E-17
   2.785000        1.0839190E-17
   2.946500        1.0874851E-17
   3.108000        1.0909033E-17
   3.269500        1.0929453E-17
   3.431000        1.0929215E-17
   3.592500        1.0909675E-17
   3.754000        1.0879945E-17
   3.915500        1.0853214E-17
   4.077000        1.0841391E-17
   4.238500        1.0850246E-17
   4.400000        1.0877064E-17
   4.561500        1.0911771E-17
   4.723000        1.0941091E-17
   4.884500        1.0954049E-17
   5.046000        1.0946562E-17
   5.207500        1.0923223E-17
   5.369000        1.0895525E-17
   5.530500        1.0877235E-17
   5.692000        1.0878782E-17
   5.853500        1.0902956E-17
   6.015000        1.0943690E-17
   6.176500        1.0988429E-17
   6.338000        1.1023139E-17
   6.499500        1.1037905E-17
   6.661000        1.1030869E-17
   6.822500        1.1008870E-17
   6.984000        1.0984559E-17
   7.145500        1.0971163E-17
   7.307000        1.0977076E-17
   7.468500        1.1002468E-17
   7.630000        1.1039311E-17
   7.791500        1.1074790E-17
   7.953000        1.1096681E-17
   8.114500        1.1098467E-17
   8.276000        1.1082102E-17
   8.437500        1.1057269E-17
   8.599000        1.1037470E-17
   8.760500        1.1034528E-17
   8.922000        1.1053777E-17
   9.083500        1.1091874E-17
   9.245000        1.1138133E-17
   9.406500        1.1178800E-17
   9.568000        1.1202534E-17
   9.729500        1.1204847E-17
   9.891000        1.1189746E-17
   10.05250        1.1167912E-17
   10.21400        1.1152225E-17
   10.37550        1.1152483E-17
   10.53700        1.1171457E-17
   10.69850        1.1203896E-17
   10.86000        1.1238826E-17
   11.02150        1.1264185E-17
   11.18300        1.1271855E-17
   11.34450        1.1261028E-17
   11.50600        1.1238539E-17
   11.66750        1.1216052E-17
   11.82900        1.1205284E-17
   11.99050        1.1213228E-17
   12.15200        1.1239346E-17
   12.31350        1.1275835E-17
   12.47500        1.1310854E-17
   12.63650        1.1333328E-17
   12.79800        1.1337376E-17
   12.95950        1.1324563E-17
   13.12100        1.1303082E-17
   13.28250        1.1284281E-17
   13.44400        1.1277981E-17
   13.60550        1.1288546E-17
   13.76700        1.1313260E-17
   13.92850        1.1343644E-17
   14.09000        1.1369081E-17
   14.25150        1.1381227E-17
   14.41300        1.1377357E-17
   14.57450        1.1361355E-17
   14.73600        1.1341951E-17
   14.89750        1.1329042E-17
   15.05900        1.1329632E-17
   15.22050        1.1345068E-17
   15.38200        1.1370651E-17
   15.54350        1.1397723E-17
   15.70500        1.1417311E-17
   15.86650        1.1423790E-17
   16.02800        1.1417083E-17
   16.18950        1.1402549E-17
   16.35100        1.1388671E-17
   16.51250        1.1383547E-17
   16.67400        1.1391657E-17
   16.83550        1.1412178E-17
   16.99700        1.1439502E-17
   17.15850        1.1465648E-17
   17.32000        1.1483538E-17
   17.48150        1.1489745E-17
   17.64300        1.1485642E-17
   17.80450        1.1476545E-17
   17.96600        1.1469282E-17
   18.12750        1.1469273E-17
   18.28900        1.1478341E-17
   18.45050        1.1494140E-17
   18.61200        1.1511351E-17
   18.77350        1.1524093E-17
   18.93500        1.1528466E-17
   19.09650        1.1524163E-17
   19.25800        1.1514519E-17
   19.41950        1.1505043E-17
   19.58100        1.1501113E-17
   19.74250        1.1505848E-17
   19.90400        1.1519019E-17
   20.06550        1.1537381E-17
   20.22700        1.1556203E-17
   20.38850        1.1571266E-17
   20.55000        1.1580464E-17
   20.71150        1.1584369E-17
   20.87300        1.1585617E-17
   21.03450        1.1587490E-17
   21.19600        1.1592370E-17
   21.35750        1.1600772E-17
   21.51900        1.1611310E-17
   21.68050        1.1621539E-17
   21.84200        1.1629218E-17
   22.00350        1.1633375E-17
   22.16500        1.1634707E-17
   22.32650        1.1635181E-17
   22.48800        1.1637066E-17
   22.64950        1.1641890E-17
   22.81100        1.1649819E-17
   22.97250        1.1659705E-17
   23.13400        1.1669766E-17
   23.29550        1.1678520E-17
   23.45700        1.1685494E-17
   23.61850        1.1691372E-17
   23.78000        1.1697506E-17
   23.94150        1.1705052E-17
   24.10300        1.1714192E-17
   24.26450        1.1723853E-17
   24.42600        1.1732107E-17
   24.58750        1.1737106E-17
   24.74900        1.1738104E-17
   24.91050        1.1736040E-17
   25.07200        1.1733358E-17
   25.23350        1.1733041E-17
   25.39500        1.1737284E-17
   25.55650        1.1746386E-17
   25.71800        1.1758434E-17
   25.87950        1.1769995E-17
   26.04100        1.1777588E-17
   26.20250        1.1779295E-17
   26.36400        1.1775798E-17
   26.52550        1.1770290E-17
   26.68700        1.1767229E-17
   26.84850        1.1770426E-17
   27.01000        1.1781266E-17
   27.17150        1.1797916E-17
   27.33300        1.1815910E-17
   27.49450        1.1829975E-17
   27.65600        1.1836316E-17
   27.81750        1.1834407E-17
   27.97900        1.1827430E-17
   28.14050        1.1821110E-17
   28.30200        1.1821358E-17
   28.46350        1.1831691E-17
   28.62500        1.1851537E-17
   28.78650        1.1876211E-17
   28.94800        1.1898652E-17
   29.10950        1.1912256E-17
   29.27100        1.1913653E-17
   29.43250        1.1904256E-17
   29.59400        1.1889853E-17
   29.75550        1.1878371E-17
   29.91700        1.1876664E-17
   30.07850        1.1887652E-17
   30.24000        1.1909027E-17
   30.40150        1.1934104E-17
   30.56300        1.1954544E-17
   30.72450        1.1963845E-17
   30.88600        1.1960156E-17
   31.04750        1.1947218E-17
   31.20900        1.1932960E-17
   31.37050        1.1926259E-17
   31.53200        1.1933190E-17
   31.69350        1.1954303E-17
   31.85500        1.1984130E-17
   32.01650        1.2013198E-17
   32.17800        1.2031772E-17
   32.33950        1.2033854E-17
   32.50100        1.2019734E-17
   32.66250        1.1996037E-17
   32.82400        1.1973159E-17
   32.98550        1.1961111E-17
   33.14700        1.1965465E-17
   33.30850        1.1985076E-17
   33.47000        1.2012564E-17
   33.63150        1.2037377E-17
   33.79300        1.2050206E-17
   33.95450        1.2046916E-17
   34.11600        1.2030358E-17
   34.27750        1.2009285E-17
   34.43900        1.1994786E-17
   34.60050        1.1995677E-17
   34.76200        1.2014761E-17
   34.92350        1.2047502E-17
   35.08500        1.2083693E-17
   35.24650        1.2111486E-17
   35.40800        1.2122132E-17
   35.56950        1.2113543E-17
   35.73100        1.2091182E-17
   35.89250        1.2065912E-17
   36.05400        1.2049655E-17
   36.21550        1.2050597E-17
   36.37700        1.2069893E-17
   36.53850        1.2101207E-17
   36.70000        1.2133301E-17
   36.86150        1.2154626E-17
   37.02300        1.2158069E-17
   37.18450        1.2143909E-17
   37.34600        1.2119771E-17
   37.50750        1.2097560E-17
   37.66900        1.2088615E-17
   37.83050        1.2099048E-17
   37.99200        1.2127183E-17
   38.15350        1.2164160E-17
   38.31500        1.2197463E-17
   38.47650        1.2215987E-17
   38.63800        1.2214534E-17
   38.79950        1.2195943E-17
   38.96100        1.2169944E-17
   39.12250        1.2149209E-17
   39.28400        1.2144202E-17
   39.44550        1.2158926E-17
   39.60700        1.2189294E-17
   39.76850        1.2224788E-17
   39.93000        1.2252720E-17
   40.09150        1.2263364E-17
   40.25300        1.2253872E-17
   40.41450        1.2229406E-17
   40.57600        1.2201041E-17
   40.73750        1.2181293E-17
   40.89900        1.2179100E-17
   41.06050        1.2196265E-17
   41.22200        1.2226808E-17
   41.38350        1.2259442E-17
   41.54500        1.2282187E-17
   41.70650        1.2287248E-17
   41.86800        1.2274169E-17
   42.02950        1.2250034E-17
   42.19100        1.2226591E-17
   42.35250        1.2215500E-17
   42.51400        1.2223581E-17
   42.67550        1.2250018E-17
   42.83700        1.2286617E-17
   42.99850        1.2321048E-17
   43.16000        1.2341754E-17
   43.32150        1.2342562E-17
   43.48300        1.2325123E-17
   43.64450        1.2298213E-17
   43.80600        1.2274169E-17
   43.96750        1.2263935E-17
   44.12900        1.2272692E-17
   44.29050        1.2297865E-17
   44.45200        1.2330288E-17
   44.61350        1.2358025E-17
   44.77500        1.2371286E-17
   44.93650        1.2366428E-17
   45.09800        1.2347413E-17
   45.25950        1.2324156E-17
   45.42100        1.2308452E-17
   45.58250        1.2309162E-17
   45.74400        1.2328604E-17
   45.90550        1.2361608E-17
   46.06700        1.2397586E-17
   46.22850        1.2424776E-17
   46.39000        1.2434914E-17
   46.55150        1.2426471E-17
   46.71300        1.2405176E-17
   46.87450        1.2381620E-17
   47.03600        1.2366966E-17
   47.19750        1.2368477E-17
   47.35900        1.2386690E-17
   47.52050        1.2415318E-17
   47.68200        1.2443908E-17
   47.84350        1.2462157E-17
   48.00500        1.2464098E-17
   48.16650        1.2450498E-17
   48.32800        1.2428484E-17
   48.48950        1.2408584E-17
   48.65100        1.2400399E-17
   48.81250        1.2408684E-17
   48.97400        1.2431429E-17
   49.13550        1.2460715E-17
   49.29700        1.2485966E-17
   49.45850        1.2498254E-17
   49.62000        1.2493900E-17
   49.78150        1.2475894E-17
   49.94300        1.2452613E-17
   50.10450        1.2434359E-17
   50.26600        1.2429199E-17
   50.42750        1.2439779E-17
   50.58900        1.2462402E-17
   50.75050        1.2488704E-17
   50.91200        1.2509181E-17
   51.07350        1.2517073E-17
   51.23500        1.2511045E-17
   51.39650        1.2495578E-17
   51.55800        1.2478987E-17
   51.71950        1.2469920E-17
   51.88100        1.2473829E-17
   52.04250        1.2490809E-17
   52.20400        1.2515691E-17
   52.36550        1.2540252E-17
   52.52700        1.2556621E-17
   52.68850        1.2560443E-17
   52.85000        1.2552535E-17
   53.01150        1.2538386E-17
   53.17300        1.2525778E-17
   53.33450        1.2521545E-17
   53.49600        1.2528802E-17
   53.65750        1.2545782E-17
   53.81900        1.2566704E-17
   53.98050        1.2584255E-17
   54.14200        1.2592631E-17
   54.30350        1.2589868E-17
   54.46500        1.2578507E-17
   54.62650        1.2564399E-17
   54.78800        1.2554176E-17
   54.94950        1.2552515E-17
   55.11100        1.2560333E-17
   55.27250        1.2574632E-17
   55.43400        1.2589995E-17
   55.59550        1.2601027E-17
   55.75700        1.2604666E-17
   55.91850        1.2601384E-17
   56.08000        1.2594823E-17
   56.24150        1.2590080E-17
   56.40300        1.2591455E-17
   56.56450        1.2600640E-17
   56.72600        1.2616108E-17
   56.88750        1.2633898E-17
   57.04900        1.2649379E-17
   57.21050        1.2659184E-17
   57.37200        1.2662462E-17
   57.53350        1.2660980E-17
   57.69500        1.2658090E-17
   57.85650        1.2657112E-17
   58.01800        1.2659880E-17
   58.17950        1.2666083E-17
   58.34100        1.2673642E-17
   58.50250        1.2679881E-17
   58.66400        1.2682909E-17
   58.82550        1.2682552E-17
   58.98700        1.2680414E-17
   59.14850        1.2679082E-17
   59.31000        1.2680843E-17
   59.47150        1.2686568E-17
   59.63300        1.2695278E-17
   59.79450        1.2704594E-17
   59.95600        1.2711886E-17
   60.11750        1.2715540E-17
   60.27900        1.2715760E-17
   60.44050        1.2714472E-17
   60.60200        1.2714376E-17
   60.76350        1.2717545E-17
   60.92500        1.2724278E-17
   61.08650        1.2732766E-17
   61.24800        1.2739824E-17
   61.40950        1.2742367E-17
   61.57100        1.2738994E-17
   61.73250        1.2730884E-17
   61.89400        1.2721525E-17
   62.05550        1.2715311E-17
   62.21700        1.2715572E-17
   62.37850        1.2722944E-17
   62.54000        1.2734871E-17
   62.70150        1.2746558E-17
   62.86300        1.2753035E-17
   63.02450        1.2751452E-17
   63.18600        1.2742559E-17
   63.34750        1.2730629E-17
   63.50900        1.2721776E-17
   63.67050        1.2721322E-17
   63.83200        1.2731357E-17
   63.99350        1.2749608E-17
   64.15500        1.2770180E-17
   64.31650        1.2785954E-17
   64.47800        1.2791648E-17
   64.63950        1.2786225E-17
   64.80100        1.2773560E-17
   64.96250        1.2760987E-17
   65.12400        1.2756256E-17
   65.28550        1.2764161E-17
   65.44700        1.2784287E-17
   65.60850        1.2810894E-17
   65.77000        1.2835090E-17
   65.93150        1.2848467E-17
   66.09300        1.2846686E-17
   66.25450        1.2831509E-17
   66.41600        1.2810310E-17
   66.57750        1.2793209E-17
   66.73900        1.2788905E-17
   66.90050        1.2800967E-17
   67.06200        1.2826159E-17
   67.22350        1.2855588E-17
   67.38500        1.2878307E-17
   67.54650        1.2885914E-17
   67.70800        1.2876217E-17
   67.86950        1.2854381E-17
   68.03100        1.2830963E-17
   68.19250        1.2817567E-17
   68.35400        1.2821918E-17
   68.51550        1.2844410E-17
   68.67700        1.2877684E-17
   68.83850        1.2909503E-17
   69.00000        1.2927791E-17
   69.16150        1.2925759E-17
   69.32300        1.2904932E-17
   69.48450        1.2874730E-17
   69.64600        1.2848709E-17
   69.80750        1.2838982E-17
   69.96900        1.2851139E-17
   70.13050        1.2881823E-17
   70.29200        1.2920023E-17
   70.45350        1.2951594E-17
   70.61500        1.2965150E-17
   70.77650        1.2956856E-17
   70.93800        1.2932109E-17
   71.09950        1.2903346E-17
   71.26100        1.2884876E-17
   71.42250        1.2886862E-17
   71.58400        1.2910962E-17
   71.74550        1.2949479E-17
   71.90700        1.2988406E-17
   72.06850        1.3013153E-17
   72.23000        1.3014593E-17
   72.39150        1.2992916E-17
   72.55300        1.2957673E-17
   72.71450        1.2923939E-17
   72.87600        1.2906147E-17
   73.03750        1.2912142E-17
   73.19900        1.2939910E-17
   73.36050        1.2978378E-17
   73.52200        1.3011986E-17
   73.68350        1.3027138E-17
   73.84500        1.3017869E-17
   74.00650        1.2988356E-17
   74.16800        1.2951202E-17
   74.32950        1.2922197E-17
   74.49100        1.2913731E-17
   74.65250        1.2929618E-17
   74.81400        1.2963490E-17
   74.97550        1.3001462E-17
   75.13700        1.3027933E-17
   75.29850        1.3032102E-17
   75.46000        1.3012469E-17
   75.62150        1.2977460E-17
   75.78300        1.2941913E-17
   75.94450        1.2920932E-17
   76.10600        1.2923661E-17
   76.26750        1.2949577E-17
   76.42900        1.2988778E-17
   76.59050        1.3026143E-17
   76.75200        1.3047579E-17
   76.91350        1.3045769E-17
   77.07500        1.3023069E-17
   77.23650        1.2990396E-17
   77.39800        1.2962645E-17
   77.55950        1.2952535E-17
   77.72100        1.2965444E-17
   77.88250        1.2997317E-17
   78.04400        1.3036452E-17
   78.20550        1.3068397E-17
   78.36700        1.3081899E-17
   78.52850        1.3073467E-17
   78.69000        1.3048705E-17
   78.85150        1.3019901E-17
   79.01300        1.3000910E-17
   79.17450        1.3001452E-17
   79.33600        1.3023173E-17
   79.49750        1.3059060E-17
   79.65900        1.3096414E-17
   79.82050        1.3122103E-17
   79.98200        1.3127928E-17
   80.14350        1.3113882E-17
   80.30500        1.3088020E-17
   80.46650        1.3063026E-17
   80.62800        1.3050974E-17
   80.78950        1.3058446E-17
   80.95100        1.3084017E-17
   81.11250        1.3119059E-17
   81.27400        1.3151457E-17
   81.43550        1.3170621E-17
   81.59700        1.3171714E-17
   81.75850        1.3157389E-17
   81.92000        1.3136415E-17
   82.08150        1.3119860E-17
   82.24300        1.3116459E-17
   82.40450        1.3129082E-17
   82.56600        1.3153699E-17
   82.72750        1.3181179E-17
   82.88900        1.3201099E-17
   83.05050        1.3205967E-17
   83.21200        1.3194165E-17
   83.37350        1.3170467E-17
   83.53500        1.3144018E-17
   83.69650        1.3124666E-17
   83.85800        1.3119144E-17
   84.01950        1.3128617E-17
   84.18100        1.3148520E-17
   84.34250        1.3170655E-17
   84.50400        1.3186645E-17
   84.66550        1.3191295E-17
   84.82700        1.3184540E-17
   84.98850        1.3171225E-17
   85.15000        1.3158902E-17
   85.31150        1.3154585E-17
   85.47300        1.3161845E-17
   85.63450        1.3179395E-17
   85.79600        1.3201708E-17
   85.95750        1.3221333E-17
   86.11900        1.3231914E-17
   86.28050        1.3230651E-17
   86.44200        1.3219222E-17
   86.60350        1.3202877E-17
   86.76500        1.3188157E-17
   86.92650        1.3180245E-17
   87.08800        1.3181044E-17
   87.24950        1.3188704E-17
   87.41100        1.3198692E-17
   87.57250        1.3205838E-17
   87.73400        1.3206479E-17
   87.89550        1.3199819E-17
   88.05700        1.3188060E-17
   88.21850        1.3175335E-17
   88.38000        1.3165999E-17
   88.54150        1.3163000E-17
   88.70300        1.3166963E-17
   88.86450        1.3176234E-17
   89.02600        1.3187797E-17
   89.18750        1.3198567E-17
   89.34900        1.3206543E-17
   89.51050        1.3211407E-17
   89.67200        1.3214390E-17
   89.83350        1.3217575E-17
   89.99500        1.3222960E-17
   90.15650        1.3231660E-17
   90.31800        1.3243550E-17
   90.47950        1.3257404E-17
   90.64100        1.3271421E-17
   90.80250        1.3283871E-17
   90.96400        1.3293591E-17
   91.12550        1.3300186E-17
   91.28700        1.3303940E-17
   91.44850        1.3305536E-17
   91.61000        1.3305793E-17
   91.77150        1.3305502E-17
   91.93300        1.3305390E-17
   92.09450        1.3306126E-17
   92.25600        1.3308238E-17
   92.41750        1.3311939E-17
   92.57900        1.3316901E-17
   92.74050        1.3322164E-17
   92.90200        1.3326327E-17
   93.06350        1.3328058E-17
   93.22500        1.3326751E-17
   93.38650        1.3323011E-17
   93.54800        1.3318691E-17
   93.70950        1.3316311E-17
   93.87100        1.3318041E-17
   94.03250        1.3324674E-17
   94.19400        1.3335051E-17
   94.35550        1.3346322E-17
   94.51700        1.3355008E-17
   94.67850        1.3358489E-17
   94.84000        1.3356259E-17
   95.00150        1.3350359E-17
   95.16300        1.3344701E-17
   95.32450        1.3343498E-17
   95.48600        1.3349426E-17
   95.64750        1.3362317E-17
   95.80900        1.3378974E-17
   95.97050        1.3394269E-17
   96.13200        1.3403121E-17
   96.29350        1.3402552E-17
   96.45500        1.3392986E-17
   96.61650        1.3378205E-17
   96.77800        1.3363944E-17
   96.93950        1.3355645E-17
   97.10100        1.3356267E-17
   97.26250        1.3365060E-17
   97.42400        1.3377831E-17
   97.58550        1.3388659E-17
   97.74700        1.3392387E-17
   97.90850        1.3386905E-17
   98.07000        1.3374246E-17
   98.23150        1.3359989E-17
   98.39300        1.3351133E-17
   98.55450        1.3353235E-17
   98.71600        1.3367998E-17
   98.87750        1.3392325E-17
   99.03900        1.3419326E-17
   99.20050        1.3440937E-17
   99.36200        1.3451123E-17
   99.52350        1.3448345E-17
   99.68500        1.3436208E-17
   99.84650        1.3422002E-17
   100.0080        1.3413656E-17
   100.1695        1.3416397E-17
   100.3310        1.3430490E-17
   100.4925        1.3451054E-17
   100.6540        1.3470051E-17
   100.8155        1.3479634E-17
   100.9770        1.3475458E-17
   101.1385        1.3458574E-17
   101.3000        1.3435105E-17
   101.4615        1.3413830E-17
   101.6230        1.3402684E-17
   101.7845        1.3405597E-17
   101.9460        1.3420956E-17
   102.1075        1.3442319E-17
   102.2690        1.3461045E-17
   102.4305        1.3469810E-17
   102.5920        1.3465574E-17
   102.7535        1.3450835E-17
   102.9150        1.3432654E-17
   103.0765        1.3419847E-17
   103.2380        1.3419445E-17
   103.3995        1.3433833E-17
   103.5610        1.3459688E-17
   103.7225        1.3489185E-17
   103.8840        1.3513003E-17
   104.0455        1.3523955E-17
   104.2070        1.3519824E-17
   104.3685        1.3504240E-17
   104.5300        1.3485215E-17
   104.6915        1.3471911E-17
   104.8530        1.3470899E-17
   105.0145        1.3483468E-17
   105.1760        1.3505064E-17
   105.3375        1.3527155E-17
   105.4990        1.3540742E-17
   105.6605        1.3540108E-17
   105.8220        1.3525253E-17
   105.9835        1.3502015E-17
   106.1450        1.3479804E-17
   106.3065        1.3467853E-17
   106.4680        1.3471531E-17
   106.6295        1.3490190E-17
   106.7910        1.3517419E-17
   106.9525        1.3543591E-17
   107.1140        1.3559674E-17
   107.2755        1.3560772E-17
   107.4370        1.3548011E-17
   107.5985        1.3528032E-17
   107.7600        1.3510320E-17
   107.9215        1.3503417E-17
   108.0830        1.3511523E-17
   108.2445        1.3532811E-17
   108.4060        1.3560129E-17
   108.5675        1.3583827E-17
   108.7290        1.3595630E-17
   108.8905        1.3591994E-17
   109.0520        1.3575639E-17
   109.2135        1.3554578E-17
   109.3750        1.3538965E-17
   109.5365        1.3537018E-17
   109.6980        1.3551596E-17
   109.8595        1.3578884E-17
   110.0210        1.3609760E-17
   110.1825        1.3633383E-17
   110.3440        1.3641562E-17
   110.5055        1.3632135E-17
   110.6670        1.3609925E-17
   110.8285        1.3584842E-17
   110.9900        1.3567858E-17
   111.1515        1.3566514E-17
   111.3130        1.3581817E-17
   111.4745        1.3607832E-17
   111.6360        1.3634148E-17
   111.7975        1.3650206E-17
   111.9590        1.3649701E-17
   112.1205        1.3633220E-17
   112.2820        1.3608018E-17
   112.4435        1.3585029E-17
   112.6050        1.3574363E-17
   112.7665        1.3581123E-17
   112.9280        1.3603281E-17
   113.0895        1.3632485E-17
   113.2510        1.3657440E-17
   113.4125        1.3668520E-17
   113.5740        1.3661698E-17
   113.7355        1.3640219E-17
   113.8970        1.3613298E-17
   114.0585        1.3592381E-17
   114.2200        1.3586451E-17
   114.3815        1.3598329E-17
   114.5430        1.3623465E-17
   114.7045        1.3651784E-17
   114.8660        1.3671807E-17
   115.0275        1.3675414E-17
   115.1890        1.3661221E-17
   115.3505        1.3635184E-17
   115.5120        1.3608127E-17
   115.6735        1.3591221E-17
   115.8350        1.3591305E-17
   115.9965        1.3608024E-17
   116.1580        1.3634046E-17
   116.3195        1.3658223E-17
   116.4810        1.3670394E-17
   116.6425        1.3665746E-17
   116.8040        1.3646871E-17
   116.9655        1.3622647E-17
   117.1270        1.3604448E-17
   117.2885        1.3601307E-17
   117.4500        1.3616128E-17
   117.6115        1.3644522E-17
   117.7730        1.3676718E-17
   117.9345        1.3701703E-17
   118.0960        1.3711783E-17
   118.2575        1.3705647E-17
   118.4190        1.3688689E-17
   118.5805        1.3670511E-17
   118.7420        1.3660759E-17