  -27.90000       -3.1929991E-18
  -27.73850       -3.1988696E-18
  -27.57700       -3.2086001E-18
  -27.41550       -3.2190937E-18
  -27.25400       -3.2273858E-18
  -27.09250       -3.2317882E-18
  -26.93100       -3.2325019E-18
  -26.76950       -3.2314483E-18
  -26.60800       -3.2314019E-18
  -26.44650       -3.2347795E-18
  -26.28500       -3.2425902E-18
  -26.12350       -3.2539782E-18
  -25.96200       -3.2665435E-18
  -25.80050       -3.2773088E-18
  -25.63900       -3.2839277E-18
  -25.47750       -3.2856425E-18
  -25.31600       -3.2835954E-18
  -25.15450       -3.2803673E-18
  -24.99300       -3.2789338E-18
  -24.83150       -3.2814735E-18
  -24.67000       -3.2884991E-18
  -24.50850       -3.2986821E-18
  -24.34700       -3.3094156E-18
  -24.18550       -3.3178922E-18
  -24.02400       -3.3222464E-18
  -23.86250       -3.3222973E-18
  -23.70100       -3.3195966E-18
  -23.53950       -3.3167726E-18
  -23.37800       -3.3164442E-18
  -23.21650       -3.3201545E-18
  -23.05500       -3.3277608E-18
  -22.89350       -3.3375152E-18
  -22.73200       -3.3467974E-18
  -22.57050       -3.3531937E-18
  -22.40900       -3.3554733E-18
  -22.24750       -3.3540685E-18
  -22.08600       -3.3508723E-18
  -21.92450       -3.3484441E-18
  -21.76300       -3.3489526E-18
  -21.60150       -3.3532965E-18
  -21.44000       -3.3607567E-18
  -21.27850       -3.3693101E-18
  -21.11700       -3.3764758E-18
  -20.95550       -3.3803306E-18
  -20.79400       -3.3802858E-18
  -20.63250       -3.3773090E-18
  -20.47100       -3.3735070E-18
  -20.30950       -3.3712583E-18
  -20.14800       -3.3722520E-18
  -19.98650       -3.3768296E-18
  -19.82500       -3.3838879E-18
  -19.66350       -3.3913725E-18
  -19.50200       -3.3971379E-18
  -19.34050       -3.3998196E-18
  -19.17900       -3.3993558E-18
  -19.01750       -3.3969611E-18
  -18.85600       -3.3945807E-18
  -18.69450       -3.3940587E-18
  -18.53300       -3.3963804E-18
  -18.37150       -3.4012902E-18
  -18.21000       -3.4074274E-18
  -18.04850       -3.4129158E-18
  -17.88700       -3.4161465E-18
  -17.72550       -3.4164298E-18
  -17.56400       -3.4142589E-18
  -17.40250       -3.4110889E-18
  -17.24100       -3.4087364E-18
  -17.07950       -3.4086535E-18
  -16.91800       -3.4113692E-18
  -16.75650       -3.4163190E-18
  -16.59500       -3.4221144E-18
  -16.43350       -3.4271209E-18
  -16.27200       -3.4301079E-18
  -16.11050       -3.4307045E-18
  -15.94900       -3.4294801E-18
  -15.78750       -3.4276437E-18
  -15.62600       -3.4264962E-18
  -15.46450       -3.4268794E-18
  -15.30300       -3.4288454E-18
  -15.14150       -3.4316822E-18
  -14.98000       -3.4342680E-18
  -14.81850       -3.4355865E-18
  -14.65700       -3.4351917E-18
  -14.49550       -3.4334096E-18
  -14.33400       -3.4312157E-18
  -14.17250       -3.4298382E-18
  -14.01100       -3.4302721E-18
  -13.84950       -3.4329050E-18
  -13.68800       -3.4374067E-18
  -13.52650       -3.4429158E-18
  -13.36500       -3.4484163E-18
  -13.20350       -3.4531374E-18
  -13.04200       -3.4568056E-18
  -12.88050       -3.4596550E-18
  -12.71900       -3.4622162E-18
  -12.55750       -3.4649953E-18
  -12.39600       -3.4682027E-18
  -12.23450       -3.4716435E-18
  -12.07300       -3.4748100E-18
  -11.91150       -3.4771203E-18
  -11.75000       -3.4781762E-18
  -11.58850       -3.4779334E-18
  -11.42700       -3.4767075E-18
  -11.26550       -3.4750242E-18
  -11.10400       -3.4734042E-18
  -10.94250       -3.4721696E-18
  -10.78100       -3.4713660E-18
  -10.61950       -3.4708254E-18
  -10.45800       -3.4703209E-18
  -10.29650       -3.4697410E-18
  -10.13500       -3.4691932E-18
  -9.973500       -3.4689821E-18
  -9.812000       -3.4694821E-18
  -9.650500       -3.4709644E-18
  -9.489000       -3.4734580E-18
  -9.327500       -3.4767204E-18
  -9.166000       -3.4803360E-18
  -9.004500       -3.4839048E-18
  -8.843000       -3.4872280E-18
  -8.681500       -3.4904044E-18
  -8.520000       -3.4937810E-18
  -8.358500       -3.4977700E-18
  -8.197000       -3.5025995E-18
  -8.035500       -3.5081292E-18
  -7.874000       -3.5138111E-18
  -7.712500       -3.5188487E-18
  -7.551000       -3.5224907E-18
  -7.389500       -3.5243428E-18
  -7.228000       -3.5245616E-18
  -7.066500       -3.5238184E-18
  -6.905000       -3.5230416E-18
  -6.743500       -3.5230371E-18
  -6.582000       -3.5241397E-18
  -6.420500       -3.5260679E-18
  -6.259000       -3.5280523E-18
  -6.097500       -3.5291983E-18
  -5.936000       -3.5289287E-18
  -5.774500       -3.5273124E-18
  -5.613000       -3.5251125E-18
  -5.451500       -3.5235202E-18
  -5.290000       -3.5236645E-18
  -5.128500       -3.5261101E-18
  -4.967000       -3.5305582E-18
  -4.805500       -3.5358973E-18
  -4.644000       -3.5406056E-18
  -4.482500       -3.5433493E-18
  -4.321000       -3.5435346E-18
  -4.159500       -3.5415709E-18
  -3.998000       -3.5387275E-18
  -3.836500       -3.5366264E-18
  -3.675000       -3.5365793E-18
  -3.513500       -3.5390331E-18
  -3.352000       -3.5433766E-18
  -3.190500       -3.5481900E-18
  -3.029000       -3.5518482E-18
  -2.867500       -3.5532341E-18
  -2.706000       -3.5522515E-18
  -2.544500       -3.5499209E-18
  -2.383000       -3.5479973E-18
  -2.221500       -3.5482570E-18
  -2.060000       -3.5517427E-18
  -1.898500       -3.5582907E-18
  -1.737000       -3.5665406E-18
  -1.575500       -3.5744431E-18
  -1.414000       -3.5800666E-18
  -1.252500       -3.5823753E-18
  -1.091000       -3.5816544E-18
 -0.9295000       -3.5794037E-18
 -0.7680000       -3.5777282E-18
 -0.6065000       -3.5784710E-18
 -0.4450000       -3.5824444E-18
 -0.2835000       -3.5890767E-18
 -0.1220000       -3.5966247E-18
  3.9500002E-02   -3.6028753E-18
  0.2010000       -3.6060538E-18
  0.3625000       -3.6055690E-18
  0.5240000       -3.6022839E-18
  0.6855000       -3.5981947E-18
  0.8470000       -3.5956367E-18
   1.008500       -3.5963286E-18
   1.170000       -3.6006514E-18
   1.331500       -3.6074525E-18
   1.493000       -3.6144794E-18
   1.654500       -3.6192709E-18
   1.816000       -3.6201617E-18
   1.977500       -3.6169841E-18
   2.139000       -3.6111827E-18
   2.300500       -3.6052667E-18
   2.462000       -3.6018149E-18
   2.623500       -3.6024291E-18
   2.785000       -3.6070658E-18
   2.946500       -3.6140319E-18
   3.108000       -3.6206593E-18
   3.269500       -3.6244002E-18
   3.431000       -3.6238878E-18
   3.592500       -3.6195265E-18
   3.754000       -3.6133491E-18
   3.915500       -3.6081974E-18
   4.077000       -3.6065451E-18
   4.238500       -3.6094651E-18
   4.400000       -3.6161665E-18
   4.561500       -3.6243076E-18
   4.723000       -3.6309643E-18
   4.884500       -3.6338491E-18
   5.046000       -3.6322741E-18
   5.207500       -3.6274562E-18
   5.369000       -3.6220233E-18
   5.530500       -3.6189408E-18
   5.692000       -3.6202850E-18
   5.853500       -3.6263830E-18
   6.015000       -3.6356672E-18
   6.176500       -3.6452998E-18
   6.338000       -3.6523101E-18
   6.499500       -3.6547747E-18
   6.661000       -3.6525690E-18
   6.822500       -3.6473809E-18
   6.984000       -3.6420034E-18
   7.145500       -3.6391902E-18
   7.307000       -3.6405480E-18
   7.468500       -3.6459061E-18
   7.630000       -3.6534127E-18
   7.791500       -3.6603094E-18
   7.953000       -3.6640635E-18
   8.114500       -3.6634117E-18
   8.276000       -3.6588870E-18
   8.437500       -3.6526191E-18
   8.599000       -3.6474893E-18
   8.760500       -3.6459780E-18
   8.922000       -3.6491672E-18
   9.083500       -3.6562975E-18
   9.245000       -3.6650669E-18
   9.406500       -3.6725446E-18
   9.568000       -3.6763451E-18
   9.729500       -3.6755845E-18
   9.891000       -3.6712327E-18
   10.05250       -3.6657154E-18
   10.21400       -3.6619306E-18
   10.37550       -3.6620684E-18
   10.53700       -3.6667312E-18
   10.69850       -3.6747064E-18
   10.86000       -3.6834816E-18
   11.02150       -3.6902955E-18
   11.18300       -3.6932841E-18
   11.34450       -3.6922526E-18
   11.50600       -3.6887503E-18
   11.66750       -3.6854251E-18
   11.82900       -3.6849205E-18
   11.99050       -3.6887768E-18
   12.15200       -3.6967831E-18
   12.31350       -3.7070500E-18
   12.47500       -3.7167653E-18
   12.63650       -3.7233207E-18
   12.79800       -3.7253361E-18
   12.95950       -3.7231813E-18
   13.12100       -3.7187712E-18
   13.28250       -3.7147469E-18
   13.44400       -3.7133771E-18
   13.60550       -3.7156374E-18
   13.76700       -3.7208416E-18
   13.92850       -3.7269661E-18
   14.09000       -3.7315209E-18
   14.25150       -3.7325913E-18
   14.41300       -3.7296304E-18
   14.57450       -3.7236656E-18
   14.73600       -3.7168592E-18
   14.89750       -3.7116157E-18
   15.05900       -3.7096122E-18
   15.22050       -3.7111595E-18
   15.38200       -3.7151399E-18
   15.54350       -3.7195318E-18
   15.70500       -3.7222867E-18
   15.86650       -3.7221854E-18
   16.02800       -3.7193175E-18
   16.18950       -3.7150104E-18
   16.35100       -3.7112513E-18
   16.51250       -3.7098616E-18
   16.67400       -3.7117679E-18
   16.83550       -3.7166623E-18
   16.99700       -3.7231652E-18
   17.15850       -3.7294062E-18
   17.32000       -3.7337684E-18
   17.48150       -3.7354922E-18
   17.64300       -3.7349149E-18
   17.80450       -3.7332630E-18
   17.96600       -3.7321049E-18
   18.12750       -3.7327013E-18
   18.28900       -3.7354980E-18
   18.45050       -3.7399743E-18
   18.61200       -3.7448749E-18
   18.77350       -3.7487333E-18
   18.93500       -3.7504712E-18
   19.09650       -3.7498351E-18
   19.25800       -3.7475045E-18
   19.41950       -3.7448299E-18
   19.58100       -3.7433037E-18
   19.74250       -3.7439870E-18
   19.90400       -3.7471042E-18
   20.06550       -3.7519862E-18
   20.22700       -3.7573699E-18
   20.38850       -3.7619310E-18
   20.55000       -3.7648232E-18
   20.71150       -3.7660044E-18
   20.87300       -3.7661972E-18
   21.03450       -3.7665276E-18
   21.19600       -3.7679851E-18
   21.35750       -3.7709605E-18
   21.51900       -3.7750629E-18
   21.68050       -3.7792989E-18
   21.84200       -3.7825278E-18
   22.00350       -3.7839849E-18
   22.16500       -3.7836267E-18
   22.32650       -3.7821502E-18
   22.48800       -3.7806778E-18
   22.64950       -3.7802497E-18
   22.81100       -3.7813743E-18
   22.97250       -3.7838269E-18
   23.13400       -3.7867869E-18
   23.29550       -3.7892370E-18
   23.45700       -3.7904356E-18
   23.61850       -3.7902392E-18
   23.78000       -3.7891382E-18
   23.94150       -3.7879975E-18
   24.10300       -3.7876418E-18
   24.26450       -3.7884769E-18
   24.42600       -3.7903240E-18
   24.58750       -3.7925325E-18
   24.74900       -3.7943064E-18
   24.91050       -3.7950860E-18
   25.07200       -3.7948118E-18
   25.23350       -3.7939483E-18
   25.39500       -3.7932675E-18
   25.55650       -3.7934941E-18
   25.71800       -3.7949702E-18
   25.87950       -3.7974911E-18
   26.04100       -3.8003808E-18
   26.20250       -3.8027718E-18
   26.36400       -3.8039778E-18
   26.52550       -3.8037900E-18
   26.68700       -3.8025786E-18
   26.84850       -3.8011484E-18
   27.01000       -3.8004056E-18
   27.17150       -3.8009714E-18
   27.33300       -3.8029021E-18
   27.49450       -3.8056487E-18
   27.65600       -3.8082771E-18
   27.81750       -3.8098723E-18
   27.97900       -3.8099575E-18
   28.14050       -3.8087498E-18
   28.30200       -3.8071190E-18
   28.46350       -3.8062559E-18
   28.62500       -3.8071616E-18
   28.78650       -3.8101850E-18
   28.94800       -3.8148089E-18
   29.10950       -3.8198030E-18
   29.27100       -3.8237028E-18
   29.43250       -3.8254146E-18
   29.59400       -3.8247061E-18
   29.75550       -3.8223421E-18
   29.91700       -3.8197993E-18
   30.07850       -3.8186652E-18
   30.24000       -3.8199618E-18
   30.40150       -3.8236999E-18
   30.56300       -3.8288540E-18
   30.72450       -3.8337919E-18
   30.88600       -3.8369894E-18
   31.04750       -3.8377107E-18
   31.20900       -3.8363706E-18
   31.37050       -3.8344052E-18
   31.53200       -3.8336872E-18
   31.69350       -3.8357209E-18
   31.85500       -3.8409573E-18
   32.01650       -3.8485248E-18
   32.17800       -3.8565017E-18
   32.33950       -3.8626489E-18
   32.50100       -3.8653083E-18
   32.66250       -3.8640944E-18
   32.82400       -3.8600909E-18
   32.98550       -3.8554375E-18
   33.14700       -3.8524742E-18
   33.30850       -3.8527682E-18
   33.47000       -3.8564434E-18
   33.63150       -3.8620926E-18
   33.79300       -3.8673440E-18
   33.95450       -3.8698615E-18
   34.11600       -3.8683697E-18
   34.27750       -3.8632573E-18
   34.43900       -3.8564934E-18
   34.60050       -3.8508479E-18
   34.76200       -3.8487333E-18
   34.92350       -3.8511569E-18
   35.08500       -3.8572334E-18
   35.24650       -3.8645014E-18
   35.40800       -3.8699223E-18
   35.56950       -3.8711651E-18
   35.73100       -3.8676194E-18
   35.89250       -3.8607063E-18
   36.05400       -3.8533315E-18
   36.21550       -3.8486923E-18
   36.37700       -3.8489446E-18
   36.53850       -3.8542853E-18
   36.70000       -3.8628578E-18
   36.86150       -3.8715138E-18
   37.02300       -3.8771271E-18
   37.18450       -3.8779001E-18
   37.34600       -3.8741240E-18
   37.50750       -3.8680603E-18
   37.66900       -3.8630000E-18
   37.83050       -3.8618788E-18
   37.99200       -3.8660333E-18
   38.15350       -3.8746029E-18
   38.31500       -3.8848521E-18
   38.47650       -3.8932707E-18
   38.63800       -3.8970224E-18
   38.79950       -3.8951323E-18
   38.96100       -3.8889239E-18
   39.12250       -3.8815136E-18
   39.28400       -3.8765513E-18
   39.44550       -3.8767130E-18
   39.60700       -3.8825695E-18
   39.76850       -3.8923079E-18
   39.93000       -3.9024429E-18
   40.09150       -3.9092370E-18
   40.25300       -3.9102507E-18
   40.41450       -3.9053744E-18
   40.57600       -3.8968888E-18
   40.73750       -3.8885268E-18
   40.89900       -3.8839116E-18
   41.06050       -3.8850394E-18
   41.22200       -3.8914464E-18
   41.38350       -3.9004234E-18
   41.54500       -3.9081869E-18
   41.70650       -3.9115121E-18
   41.86800       -3.9091232E-18
   42.02950       -3.9022489E-18
   42.19100       -3.8940996E-18
   42.35250       -3.8885029E-18
   42.51400       -3.8882791E-18
   42.67550       -3.8940532E-18
   42.83700       -3.9039881E-18
   42.99850       -3.9145520E-18
   43.16000       -3.9219656E-18
   43.32150       -3.9237271E-18
   43.48300       -3.9195854E-18
   43.64450       -3.9115791E-18
   43.80600       -3.9031506E-18
   43.96750       -3.8977292E-18
   44.12900       -3.8973624E-18
   44.29050       -3.9019590E-18
   44.45200       -3.9094152E-18
   44.61350       -3.9165513E-18
   44.77500       -3.9204585E-18
   44.93650       -3.9197008E-18
   45.09800       -3.9148990E-18
   45.25950       -3.9084607E-18
   45.42100       -3.9035915E-18
   45.58250       -3.9029756E-18
   45.74400       -3.9076728E-18
   45.90550       -3.9166725E-18
   46.06700       -3.9272906E-18
   46.22850       -3.9362399E-18
   46.39000       -3.9409465E-18
   46.55150       -3.9405611E-18
   46.71300       -3.9362506E-18
   46.87450       -3.9306634E-18
   47.03600       -3.9267873E-18
   47.19750       -3.9266934E-18
   47.35900       -3.9306953E-18
   47.52050       -3.9372689E-18
   47.68200       -3.9437602E-18
   47.84350       -3.9475507E-18
   48.00500       -3.9471773E-18
   48.16650       -3.9429148E-18
   48.32800       -3.9366018E-18
   48.48950       -3.9308094E-18
   48.65100       -3.9277435E-18
   48.81250       -3.9283626E-18
   48.97400       -3.9320742E-18
   49.13550       -3.9370968E-18
   49.29700       -3.9412939E-18
   49.45850       -3.9430794E-18
   49.62000       -3.9420210E-18
   49.78150       -3.9389108E-18
   49.94300       -3.9353358E-18
   50.10450       -3.9329667E-18
   50.26600       -3.9329001E-18
   50.42750       -3.9353043E-18
   50.58900       -3.9394708E-18
   50.75050       -3.9441878E-18
   50.91200       -3.9482464E-18
   51.07350       -3.9508586E-18
   51.23500       -3.9518558E-18
   51.39650       -3.9516225E-18
   51.55800       -3.9508421E-18
   51.71950       -3.9501882E-18
   51.88100       -3.9500761E-18
   52.04250       -3.9505596E-18
   52.20400       -3.9513868E-18
   52.36550       -3.9521552E-18
   52.52700       -3.9525022E-18
   52.68850       -3.9522442E-18
   52.85000       -3.9514240E-18
   53.01150       -3.9502713E-18
   53.17300       -3.9491058E-18
   53.33450       -3.9482406E-18
   53.49600       -3.9479259E-18
   53.65750       -3.9483473E-18
   53.81900       -3.9496435E-18
   53.98050       -3.9519125E-18
   54.14200       -3.9551604E-18
   54.30350       -3.9592148E-18
   54.46500       -3.9636563E-18
   54.62650       -3.9678460E-18
   54.78800       -3.9710923E-18
   54.94950       -3.9729191E-18
   55.11100       -3.9733294E-18
   55.27250       -3.9729038E-18
   55.43400       -3.9726569E-18
   55.59550       -3.9736392E-18
   55.75700       -3.9764516E-18
   55.91850       -3.9808795E-18
   56.08000       -3.9858591E-18
   56.24150       -3.9898391E-18
   56.40300       -3.9914215E-18
   56.56450       -3.9900054E-18
   56.72600       -3.9861308E-18
   56.88750       -3.9813241E-18
   57.04900       -3.9774847E-18
   57.21050       -3.9760636E-18
   57.37200       -3.9773929E-18
   57.53350       -3.9804903E-18
   57.69500       -3.9834442E-18
   57.85650       -3.9842287E-18
   58.01800       -3.9816153E-18
   58.17950       -3.9757692E-18
   58.34100       -3.9682778E-18
   58.50250       -3.9615727E-18
   58.66400       -3.9579947E-18
   58.82550       -3.9588624E-18
   58.98700       -3.9639426E-18
   59.14850       -3.9715257E-18
   59.31000       -3.9790820E-18
   59.47150       -3.9842482E-18
   59.63300       -3.9857441E-18
   59.79450       -3.9838801E-18
   59.95600       -3.9804345E-18
   60.11750       -3.9779405E-18
   60.27900       -3.9786378E-18
   60.44050       -3.9834979E-18
   60.60200       -3.9917197E-18
   60.76350       -4.0009258E-18
   60.92500       -4.0080313E-18
   61.08650       -4.0104723E-18
   61.24800       -4.0072984E-18
   61.40950       -3.9996792E-18
   61.57100       -3.9905525E-18
   61.73250       -3.9835153E-18
   61.89400       -3.9813762E-18
   62.05550       -3.9849641E-18
   62.21700       -3.9927251E-18
   62.37850       -4.0013199E-18
   62.54000       -4.0070019E-18
   62.70150       -4.0072186E-18
   62.86300       -4.0017406E-18
   63.02450       -3.9928227E-18
   63.18600       -3.9842978E-18
   63.34750       -3.9799911E-18
   63.50900       -3.9821070E-18
   63.67050       -3.9902982E-18
   63.83200       -4.0018014E-18
   63.99350       -4.0125907E-18
   64.15500       -4.0190551E-18
   64.31650       -4.0194836E-18
   64.47800       -4.0147534E-18
   64.63950       -4.0079283E-18
   64.80100       -4.0029545E-18
   64.96250       -4.0029991E-18
   65.12400       -4.0091091E-18
   65.28550       -4.0197293E-18
   65.44700       -4.0312755E-18
   65.60850       -4.0395229E-18
   65.77000       -4.0412703E-18
   65.93150       -4.0356198E-18
   66.09300       -4.0243735E-18
   66.25450       -4.0113640E-18
   66.41600       -4.0009874E-18
   66.57750       -3.9964843E-18
   66.73900       -3.9986680E-18
   66.90050       -4.0056122E-18
   67.06200       -4.0134563E-18
   67.22350       -4.0180315E-18
   67.38500       -4.0166476E-18
   67.54650       -4.0093068E-18
   67.70800       -3.9988020E-18
   67.86950       -3.9896178E-18
   68.03100       -3.9860680E-18
   68.19250       -3.9904417E-18
   68.35400       -4.0019536E-18
   68.51550       -4.0169752E-18
   68.67700       -4.0304797E-18
   68.83850       -4.0380869E-18
   69.00000       -4.0378520E-18
   69.16150       -4.0310273E-18
   69.32300       -4.0214775E-18
   69.48450       -4.0140143E-18
   69.64600       -4.0123678E-18
   69.80750       -4.0176626E-18
   69.96900       -4.0280205E-18
   70.13050       -4.0394290E-18
   70.29200       -4.0474700E-18
   70.45350       -4.0491616E-18
   70.61500       -4.0441460E-18
   70.77650       -4.0347691E-18
   70.93800       -4.0250592E-18
   71.09950       -4.0190613E-18
   71.26100       -4.0192143E-18
   71.42250       -4.0254079E-18
   71.58400       -4.0350702E-18
   71.74550       -4.0442291E-18
   71.90700       -4.0491016E-18
   72.06850       -4.0476094E-18
   72.23000       -4.0402239E-18
   72.39150       -4.0298134E-18
   72.55300       -4.0205531E-18
   72.71450       -4.0163039E-18
   72.87600       -4.0190882E-18
   73.03750       -4.0282629E-18
   73.19900       -4.0407392E-18
   73.36050       -4.0521775E-18
   73.52200       -4.0587023E-18
   73.68350       -4.0584504E-18
   73.84500       -4.0523028E-18
   74.00650       -4.0434966E-18
   74.16800       -4.0362501E-18
   74.32950       -4.0339812E-18
   74.49100       -4.0378731E-18
   74.65250       -4.0464001E-18
   74.81400       -4.0560078E-18
   74.97550       -4.0626637E-18
   75.13700       -4.0635864E-18
   75.29850       -4.0584285E-18
   75.46000       -4.0494064E-18
   75.62150       -4.0403517E-18
   75.78300       -4.0351028E-18
   75.94450       -4.0359358E-18
   76.10600       -4.0426691E-18
   76.26750       -4.0528024E-18
   76.42900       -4.0625673E-18
   76.59050       -4.0684490E-18
   76.75200       -4.0685346E-18
   76.91350       -4.0631815E-18
   77.07500       -4.0547777E-18
   77.23650       -4.0467425E-18
   77.39800       -4.0421765E-18
   77.55950       -4.0426918E-18
   77.72100       -4.0478509E-18
   77.88250       -4.0554039E-18
   78.04400       -4.0622236E-18
   78.20550       -4.0655571E-18
   78.36700       -4.0641228E-18
   78.52850       -4.0586175E-18
   78.69000       -4.0514409E-18
   78.85150       -4.0457267E-18
   79.01300       -4.0440662E-18
   79.17450       -4.0474266E-18
   79.33600       -4.0547194E-18
   79.49750       -4.0632055E-18
   79.65900       -4.0695934E-18
   79.82050       -4.0713855E-18
   79.98200       -4.0678997E-18
   80.14350       -4.0605453E-18
   80.30500       -4.0522308E-18
   80.46650       -4.0461664E-18
   80.62800       -4.0445819E-18
   80.78950       -4.0478989E-18
   80.95100       -4.0546826E-18
   81.11250       -4.0623514E-18
   81.27400       -4.0683129E-18
   81.43550       -4.0710124E-18
   81.59700       -4.0704826E-18
   81.75850       -4.0681971E-18
   81.92000       -4.0663475E-18
   82.08150       -4.0668918E-18
   82.24300       -4.0707667E-18
   82.40450       -4.0775558E-18
   82.56600       -4.0856895E-18
   82.72750       -4.0930530E-18
   82.88900       -4.0977510E-18
   83.05050       -4.0987556E-18
   83.21200       -4.0962373E-18
   83.37350       -4.0914880E-18
   83.53500       -4.0864707E-18
   83.69650       -4.0831418E-18
   83.85800       -4.0827704E-18
   84.01950       -4.0854889E-18
   84.18100       -4.0902427E-18
   84.34250       -4.0951888E-18
   84.50400       -4.0984099E-18
   84.66550       -4.0986795E-18
   84.82700       -4.0959854E-18
   84.98850       -4.0915521E-18
   85.15000       -4.0873500E-18
   85.31150       -4.0852556E-18
   85.47300       -4.0862346E-18
   85.63450       -4.0899102E-18
   85.79600       -4.0947132E-18
   85.95750       -4.0985497E-18
   86.11900       -4.0996982E-18
   86.28050       -4.0975235E-18
   86.44200       -4.0927110E-18
   86.60350       -4.0869393E-18
   86.76500       -4.0821508E-18
   86.92650       -4.0797590E-18
   87.08800       -4.0801246E-18
   87.24950       -4.0824966E-18
   87.41100       -4.0854024E-18
   87.57250       -4.0872863E-18
   87.73400       -4.0871205E-18
   87.89550       -4.0847622E-18
   88.05700       -4.0809514E-18
   88.21850       -4.0769925E-18
   88.38000       -4.0742661E-18
   88.54150       -4.0737421E-18
   88.70300       -4.0756541E-18
   88.86450       -4.0794298E-18
   89.02600       -4.0839098E-18
   89.18750       -4.0877835E-18
   89.34900       -4.0900979E-18
   89.51050       -4.0906517E-18
   89.67200       -4.0901008E-18
   89.83350       -4.0897108E-18
   89.99500       -4.0908321E-18
   90.15650       -4.0943000E-18
   90.31800       -4.1000187E-18
   90.47950       -4.1069236E-18
   90.64100       -4.1133756E-18
   90.80250       -4.1178147E-18
   90.96400       -4.1193996E-18
   91.12550       -4.1183354E-18
   91.28700       -4.1157376E-18
   91.44850       -4.1131072E-18
   91.61000       -4.1116683E-18
   91.77150       -4.1118772E-18
   91.93300       -4.1133123E-18
   92.09450       -4.1149675E-18
   92.25600       -4.1157778E-18
   92.41750       -4.1151309E-18
   92.57900       -4.1131320E-18
   92.74050       -4.1105376E-18
   92.90200       -4.1084125E-18
   93.06350       -4.1076809E-18
   93.22500       -4.1087662E-18
   93.38650       -4.1114371E-18
   93.54800       -4.1149105E-18
   93.70950       -4.1181348E-18
   93.87100       -4.1201614E-18
   94.03250       -4.1204757E-18
   94.19400       -4.1191891E-18
   94.35550       -4.1170160E-18
   94.51700       -4.1150308E-18
   94.67850       -4.1142582E-18
   94.84000       -4.1152455E-18
   95.00150       -4.1177961E-18
   95.16300       -4.1210179E-18
   95.32450       -4.1236980E-18
   95.48600       -4.1248689E-18
   95.64750       -4.1243085E-18
   95.80900       -4.1227149E-18
   95.97050       -4.1214377E-18
   96.13200       -4.1218422E-18
   96.29350       -4.1246120E-18
   96.45500       -4.1293216E-18
   96.61650       -4.1345283E-18
   96.77800       -4.1383751E-18
   96.93950       -4.1394384E-18
   97.10100       -4.1374044E-18
   97.26250       -4.1332478E-18
   97.42400       -4.1288063E-18
   97.58550       -4.1259546E-18
   97.74700       -4.1257664E-18
   97.90850       -4.1280680E-18
   98.07000       -4.1315748E-18
   98.23150       -4.1345395E-18
   98.39300       -4.1355900E-18
   98.55450       -4.1343786E-18
   98.71600       -4.1317419E-18
   98.87750       -4.1293228E-18
   99.03900       -4.1288212E-18
   99.20050       -4.1312150E-18
   99.36200       -4.1362811E-18
   99.52350       -4.1426074E-18
   99.68500       -4.1480990E-18
   99.84650       -4.1507832E-18
   100.0080       -4.1495892E-18
   100.1695       -4.1448209E-18
   100.3310       -4.1381034E-18
   100.4925       -4.1318093E-18
   100.6540       -4.1281478E-18
   100.8155       -4.1282682E-18
   100.9770       -4.1317506E-18
   101.1385       -4.1367311E-18
   101.3000       -4.1406656E-18
   101.4615       -4.1414328E-18
   101.6230       -4.1383246E-18
   101.7845       -4.1324558E-18
   101.9460       -4.1263653E-18
   102.1075       -4.1229411E-18
   102.2690       -4.1241174E-18
   102.4305       -4.1299358E-18
   102.5920       -4.1384251E-18
   102.7535       -4.1463975E-18
   102.9150       -4.1508362E-18
   103.0765       -4.1502567E-18
   103.2380       -4.1454210E-18
   103.3995       -4.1390699E-18
   103.5610       -4.1347611E-18
   103.7225       -4.1353402E-18
   103.8840       -4.1416875E-18
   104.0455       -4.1523098E-18
   104.2070       -4.1639172E-18
   104.3685       -4.1727585E-18
   104.5300       -4.1761301E-18
   104.6915       -4.1734504E-18
   104.8530       -4.1664537E-18
   105.0145       -4.1584425E-18
   105.1760       -4.1529058E-18
   105.3375       -4.1520682E-18
   105.4990       -4.1559560E-18
   105.6605       -4.1623683E-18
   105.8220       -4.1677785E-18
   105.9835       -4.1688253E-18
   106.1450       -4.1638063E-18
   106.3065       -4.1535460E-18
   106.4680       -4.1412438E-18
   106.6295       -4.1313031E-18
   106.7910       -4.1275717E-18
   106.9525       -4.1317064E-18
   107.1140       -4.1423753E-18
   107.2755       -4.1556896E-18
   107.4370       -4.1667375E-18
   107.5985       -4.1716046E-18
   107.7600       -4.1690184E-18
   107.9215       -4.1608876E-18
   108.0830       -4.1514822E-18
   108.2445       -4.1455782E-18
   108.4060       -4.1463830E-18
   108.5675       -4.1541345E-18
   108.7290       -4.1660058E-18
   108.8905       -4.1773415E-18
   109.0520       -4.1836922E-18
   109.2135       -4.1827517E-18
   109.3750       -4.1753621E-18
   109.5365       -4.1651675E-18
   109.6980       -4.1570876E-18
   109.8595       -4.1552632E-18
   110.0210       -4.1613322E-18
   110.1825       -4.1737329E-18
   110.3440       -4.1882992E-18
   110.5055       -4.1998942E-18
   110.6670       -4.2044346E-18
   110.8285       -4.2005059E-18
   110.9900       -4.1899366E-18
   111.1515       -4.1770929E-18
   111.3130       -4.1671680E-18
   111.4745       -4.1641079E-18
   111.6360       -4.1690056E-18
   111.7975       -4.1796129E-18
   111.9590       -4.1912220E-18
   112.1205       -4.1985893E-18
   112.2820       -4.1981670E-18
   112.4435       -4.1896868E-18
   112.6050       -4.1764068E-18
   112.7665       -4.1638307E-18
   112.9280       -4.1573994E-18
   113.0895       -4.1601122E-18
   113.2510       -4.1711281E-18
   113.4125       -4.1859984E-18
   113.5740       -4.1984772E-18
   113.7355       -4.2031570E-18
   113.8970       -4.1977869E-18
   114.0585       -4.1842625E-18
   114.2200       -4.1678405E-18
   114.3815       -4.1549166E-18
   114.5430       -4.1503270E-18
   114.7045       -4.1553381E-18
   114.8660       -4.1671812E-18
   115.0275       -4.1803053E-18
   115.1890       -4.1887793E-18
   115.3505       -4.1888112E-18
   115.5120       -4.1803094E-18
   115.6735       -4.1668785E-18
   115.8350       -4.1542681E-18
   115.9965       -4.1479621E-18
   116.1580       -4.1508945E-18
   116.3195       -4.1622326E-18
   116.4810       -4.1777042E-18
   116.6425       -4.1913440E-18
   116.8040       -4.1979491E-18
   116.9655       -4.1952454E-18
   117.1270       -4.1848730E-18
   117.2885       -4.1717663E-18
   117.4500       -4.1621470E-18
   117.6115       -4.1609455E-18
   117.7730       -4.1697041E-18
   117.9345       -4.1858660E-18
   118.0960       -4.2037865E-18
   118.2575       -4.2170735E-18
   118.4190       -4.2212822E-18
   118.5805       -4.2157909E-18
   118.7420       -4.2040297E-18