  -27.90000        5.9589628E-18
  -27.73850        5.9614989E-18
  -27.57700        5.9656857E-18
  -27.41550        5.9702865E-18
  -27.25400        5.9743616E-18
  -27.09250        5.9776856E-18
  -26.93100        5.9807135E-18
  -26.76950        5.9841385E-18
  -26.60800        5.9883554E-18
  -26.44650        5.9931626E-18
  -26.28500        5.9978887E-18
  -26.12350        6.0018339E-18
  -25.96200        6.0047353E-18
  -25.80050        6.0069405E-18
  -25.63900        6.0091789E-18
  -25.47750        6.0120815E-18
  -25.31600        6.0157678E-18
  -25.15450        6.0197734E-18
  -24.99300        6.0233721E-18
  -24.83150        6.0260666E-18
  -24.67000        6.0279315E-18
  -24.50850        6.0295618E-18
  -24.34700        6.0316662E-18
  -24.18550        6.0345808E-18
  -24.02400        6.0380194E-18
  -23.86250        6.0412470E-18
  -23.70100        6.0435544E-18
  -23.53950        6.0447361E-18
  -23.37800        6.0452580E-18
  -23.21650        6.0459930E-18
  -23.05500        6.0476874E-18
  -22.89350        6.0504866E-18
  -22.73200        6.0538239E-18
  -22.57050        6.0567517E-18
  -22.40900        6.0585214E-18
  -22.24750        6.0590364E-18
  -22.08600        6.0589115E-18
  -21.92450        6.0590848E-18
  -21.76300        6.0602399E-18
  -21.60150        6.0623989E-18
  -21.44000        6.0649424E-18
  -21.27850        6.0670220E-18
  -21.11700        6.0681043E-18
  -20.95550        6.0682871E-18
  -20.79400        6.0682044E-18
  -20.63250        6.0685982E-18
  -20.47100        6.0698451E-18
  -20.30950        6.0717472E-18
  -20.14800        6.0737060E-18
  -19.98650        6.0751643E-18
  -19.82500        6.0760051E-18
  -19.66350        6.0766450E-18
  -19.50200        6.0777389E-18
  -19.34050        6.0796973E-18
  -19.17900        6.0823327E-18
  -19.01750        6.0848915E-18
  -18.85600        6.0864797E-18
  -18.69450        6.0866179E-18
  -18.53300        6.0855765E-18
  -18.37150        6.0842703E-18
  -18.21000        6.0837707E-18
  -18.04850        6.0847249E-18
  -17.88700        6.0870377E-18
  -17.72550        6.0899953E-18
  -17.56400        6.0927386E-18
  -17.40250        6.0947834E-18
  -17.24100        6.0962678E-18
  -17.07950        6.0977803E-18
  -16.91800        6.0998974E-18
  -16.75650        6.1027367E-18
  -16.59500        6.1058188E-18
  -16.43350        6.1083268E-18
  -16.27200        6.1096048E-18
  -16.11050        6.1095647E-18
  -15.94900        6.1087466E-18
  -15.78750        6.1079939E-18
  -15.62600        6.1079604E-18
  -15.46450        6.1087751E-18
  -15.30300        6.1100651E-18
  -15.14150        6.1113047E-18
  -14.98000        6.1122406E-18
  -14.81850        6.1130905E-18
  -14.65700        6.1143925E-18
  -14.49550        6.1165916E-18
  -14.33400        6.1196542E-18
  -14.17250        6.1229807E-18
  -14.01100        6.1256997E-18
  -13.84950        6.1271824E-18
  -13.68800        6.1274537E-18
  -13.52650        6.1272246E-18
  -13.36500        6.1274967E-18
  -13.20350        6.1289703E-18
  -13.04200        6.1316124E-18
  -12.88050        6.1346605E-18
  -12.71900        6.1370709E-18
  -12.55750        6.1381425E-18
  -12.39600        6.1379304E-18
  -12.23450        6.1372095E-18
  -12.07300        6.1370130E-18
  -11.91150        6.1380371E-18
  -11.75000        6.1402659E-18
  -11.58850        6.1430295E-18
  -11.42700        6.1454354E-18
  -11.26550        6.1468933E-18
  -11.10400        6.1474206E-18
  -10.94250        6.1475476E-18
  -10.78100        6.1479235E-18
  -10.61950        6.1488938E-18
  -10.45800        6.1503219E-18
  -10.29650        6.1517720E-18
  -10.13500        6.1528899E-18
  -9.973500        6.1537113E-18
  -9.812000        6.1546622E-18
  -9.650500        6.1562503E-18
  -9.489000        6.1586599E-18
  -9.327500        6.1615402E-18
  -9.166000        6.1641570E-18
  -9.004500        6.1658196E-18
  -8.843000        6.1663229E-18
  -8.681500        6.1660971E-18
  -8.520000        6.1659627E-18
  -8.358500        6.1666153E-18
  -8.197000        6.1681766E-18
  -8.035500        6.1700891E-18
  -7.874000        6.1714577E-18
  -7.712500        6.1716396E-18
  -7.551000        6.1707153E-18
  -7.389500        6.1695332E-18
  -7.228000        6.1692751E-18
  -7.066500        6.1707847E-18
  -6.905000        6.1740591E-18
  -6.743500        6.1782203E-18
  -6.582000        6.1819761E-18
  -6.420500        6.1843021E-18
  -6.259000        6.1849490E-18
  -6.097500        6.1844874E-18
  -5.936000        6.1839071E-18
  -5.774500        6.1840304E-18
  -5.613000        6.1850987E-18
  -5.451500        6.1867605E-18
  -5.290000        6.1884194E-18
  -5.128500        6.1896879E-18
  -4.967000        6.1906375E-18
  -4.805500        6.1916971E-18
  -4.644000        6.1932845E-18
  -4.482500        6.1954484E-18
  -4.321000        6.1977810E-18
  -4.159500        6.1996711E-18
  -3.998000        6.2007225E-18
  -3.836500        6.2010405E-18
  -3.675000        6.2011778E-18
  -3.513500        6.2017552E-18
  -3.352000        6.2030109E-18
  -3.190500        6.2045957E-18
  -3.029000        6.2057658E-18
  -2.867500        6.2058721E-18
  -2.706000        6.2048480E-18
  -2.544500        6.2033587E-18
  -2.383000        6.2024988E-18
  -2.221500        6.2031924E-18
  -2.060000        6.2056430E-18
  -1.898500        6.2091812E-18
  -1.737000        6.2126235E-18
  -1.575500        6.2149281E-18
  -1.414000        6.2157701E-18
  -1.252500        6.2156845E-18
  -1.091000        6.2157006E-18
 -0.9295000        6.2166974E-18
 -0.7680000        6.2188799E-18
 -0.6065000        6.2217010E-18
 -0.4450000        6.2242396E-18
 -0.2835000        6.2257902E-18
 -0.1220000        6.2262840E-18
  3.9500002E-02    6.2262890E-18
  0.2010000        6.2266178E-18
  0.3625000        6.2278011E-18
  0.5240000        6.2297755E-18
  0.6855000        6.2319709E-18
  0.8470000        6.2337245E-18
   1.008500        6.2347270E-18
   1.170000        6.2352006E-18
   1.331500        6.2356903E-18
   1.493000        6.2366147E-18
   1.654500        6.2379009E-18
   1.816000        6.2389742E-18
   1.977500        6.2391388E-18
   2.139000        6.2381044E-18
   2.300500        6.2363061E-18
   2.462000        6.2347742E-18
   2.623500        6.2346009E-18
   2.785000        6.2363264E-18
   2.946500        6.2396120E-18
   3.108000        6.2434108E-18
   3.269500        6.2465479E-18
   3.431000        6.2483577E-18
   3.592500        6.2490096E-18
   3.754000        6.2493218E-18
   3.915500        6.2501999E-18
   4.077000        6.2520432E-18
   4.238500        6.2545070E-18
   4.400000        6.2567383E-18
   4.561500        6.2579419E-18
   4.723000        6.2578914E-18
   4.884500        6.2570651E-18
   5.046000        6.2563301E-18
   5.207500        6.2563959E-18
   5.369000        6.2573980E-18
   5.530500        6.2588791E-18
   5.692000        6.2601550E-18
   5.853500        6.2608060E-18
   6.015000        6.2609487E-18
   6.176500        6.2611182E-18
   6.338000        6.2618354E-18
   6.499500        6.2631738E-18
   6.661000        6.2646325E-18
   6.822500        6.2654357E-18
   6.984000        6.2650767E-18
   7.145500        6.2637528E-18
   7.307000        6.2623747E-18
   7.468500        6.2620980E-18
   7.630000        6.2636469E-18
   7.791500        6.2668374E-18
   7.953000        6.2706329E-18
   8.114500        6.2737104E-18
   8.276000        6.2752068E-18
   8.437500        6.2752018E-18
   8.599000        6.2746410E-18
   8.760500        6.2747473E-18
   8.922000        6.2762879E-18
   9.083500        6.2791301E-18
   9.245000        6.2823453E-18
   9.406500        6.2847789E-18
   9.568000        6.2857298E-18
   9.729500        6.2853286E-18
   9.891000        6.2844071E-18
   10.05250        6.2839617E-18
   10.21400        6.2845767E-18
   10.37550        6.2861578E-18
   10.53700        6.2881178E-18
   10.69850        6.2898479E-18
   10.86000        6.2911300E-18
   11.02150        6.2922000E-18
   11.18300        6.2934478E-18
   11.34450        6.2949876E-18
   11.50600        6.2964351E-18
   11.66750        6.2970783E-18
   11.82900        6.2963487E-18
   11.99050        6.2942770E-18
   12.15200        6.2916019E-18
   12.31350        6.2894248E-18
   12.47500        6.2885893E-18
   12.63650        6.2891733E-18
   12.79800        6.2904290E-18
   12.95950        6.2912437E-18
   13.12100        6.2908612E-18
   13.28250        6.2894124E-18
   13.44400        6.2879114E-18
   13.60550        6.2876881E-18
   13.76700        6.2895828E-18
   13.92850        6.2933990E-18
   14.09000        6.2979534E-18
   14.25150        6.3017022E-18
   14.41300        6.3035762E-18
   14.57450        6.3035332E-18
   14.73600        6.3025195E-18
   14.89750        6.3018879E-18
   15.05900        6.3026402E-18
   15.22050        6.3049323E-18
   15.38200        6.3081079E-18
   15.54350        6.3111854E-18
   15.70500        6.3134602E-18
   15.86650        6.3148391E-18
   16.02800        6.3157349E-18
   16.18950        6.3166390E-18
   16.35100        6.3177044E-18
   16.51250        6.3186441E-18
   16.67400        6.3190043E-18
   16.83550        6.3186015E-18
   16.99700        6.3177785E-18
   17.15850        6.3172739E-18
   17.32000        6.3177582E-18
   17.48150        6.3193596E-18
   17.64300        6.3215078E-18
   17.80450        6.3232412E-18
   17.96600        6.3238053E-18
   18.12750        6.3231630E-18
   18.28900        6.3220773E-18
   18.45050        6.3216774E-18
   18.61200        6.3227498E-18
   18.77350        6.3251925E-18
   18.93500        6.3279921E-18
   19.09650        6.3297622E-18
   19.25800        6.3295497E-18
   19.41950        6.3274172E-18
   19.58100        6.3244418E-18
   19.74250        6.3221249E-18
   19.90400        6.3215645E-18
   20.06550        6.3228826E-18
   20.22700        6.3252462E-18
   20.38850        6.3274242E-18
   20.55000        6.3285339E-18
   20.71150        6.3285153E-18
   20.87300        6.3280661E-18
   21.03450        6.3281199E-18
   21.19600        6.3292320E-18
   21.35750        6.3312495E-18
   21.51900        6.3334651E-18
   21.68050        6.3351166E-18
   21.84200        6.3358776E-18
   22.00350        6.3360182E-18
   22.16500        6.3361311E-18
   22.32650        6.3366411E-18
   22.48800        6.3374534E-18
   22.64950        6.3380125E-18
   22.81100        6.3377354E-18
   22.97250        6.3365240E-18
   23.13400        6.3349751E-18
   23.29550        6.3341087E-18
   23.45700        6.3347493E-18
   23.61850        6.3369628E-18
   23.78000        6.3399060E-18
   23.94150        6.3422440E-18
   24.10300        6.3428859E-18
   24.26450        6.3416199E-18
   24.42600        6.3392446E-18
   24.58750        6.3371146E-18
   24.74900        6.3363569E-18
   24.91050        6.3372375E-18
   25.07200        6.3390660E-18
   25.23350        6.3406864E-18
   25.39500        6.3412447E-18
   25.55650        6.3407484E-18
   25.71800        6.3400594E-18
   25.87950        6.3403365E-18
   26.04100        6.3422895E-18
   26.20250        6.3457144E-18
   26.36400        6.3495997E-18
   26.52550        6.3527128E-18
   26.68700        6.3542981E-18
   26.84850        6.3544457E-18
   27.01000        6.3539387E-18
   27.17150        6.3536946E-18
   27.33300        6.3541901E-18
   27.49450        6.3552353E-18
   27.65600        6.3562184E-18
   27.81750        6.3566456E-18
   27.97900        6.3565658E-18
   28.14050        6.3565815E-18
   28.30200        6.3574215E-18
   28.46350        6.3593612E-18
   28.62500        6.3619106E-18
   28.78650        6.3640133E-18
   28.94800        6.3646602E-18
   29.10950        6.3635323E-18
   29.27100        6.3612460E-18
   29.43250        6.3590204E-18
   29.59400        6.3579621E-18
   29.75550        6.3584054E-18
   29.91700        6.3597331E-18
   30.07850        6.3607885E-18
   30.24000        6.3606396E-18
   30.40150        6.3592066E-18
   30.56300        6.3573636E-18
   30.72450        6.3564289E-18
   30.88600        6.3573570E-18
   31.04750        6.3601375E-18
   31.20900        6.3637829E-18
   31.37050        6.3669171E-18
   31.53200        6.3685897E-18
   31.69350        6.3688052E-18
   31.85500        6.3684400E-18
   32.01650        6.3686153E-18
   32.17800        6.3699512E-18
   32.33950        6.3721734E-18
   32.50100        6.3743191E-18
   32.66250        6.3753833E-18
   32.82400        6.3749825E-18
   32.98550        6.3736032E-18
   33.14700        6.3722818E-18
   33.30850        6.3719311E-18
   33.47000        6.3727628E-18
   33.63150        6.3741694E-18
   33.79300        6.3751608E-18
   33.95450        6.3750458E-18
   34.11600        6.3739072E-18
   34.27750        6.3725420E-18
   34.43900        6.3719046E-18
   34.60050        6.3724299E-18
   34.76200        6.3736996E-18
   34.92350        6.3747001E-18
   35.08500        6.3744999E-18
   35.24650        6.3729121E-18
   35.40800        6.3706969E-18
   35.56950        6.3691555E-18
   35.73100        6.3693639E-18
   35.89250        6.3715204E-18
   36.05400        6.3748254E-18
   36.21550        6.3779649E-18
   36.37700        6.3798939E-18
   36.53850        6.3804283E-18
   36.70000        6.3802641E-18
   36.86150        6.3804283E-18
   37.02300        6.3815305E-18
   37.18450        6.3833234E-18
   37.34600        6.3848682E-18
   37.50750        6.3851999E-18
   37.66900        6.3840410E-18
   37.83050        6.3820723E-18
   37.99200        6.3805689E-18
   38.15350        6.3806214E-18
   38.31500        6.3824561E-18
   38.47650        6.3852880E-18
   38.63800        6.3878208E-18
   38.79950        6.3890653E-18
   38.96100        6.3889611E-18
   39.12250        6.3883899E-18
   39.28400        6.3885768E-18
   39.44550        6.3902535E-18
   39.60700        6.3931268E-18
   39.76850        6.3960211E-18
   39.93000        6.3976063E-18
   40.09150        6.3972565E-18
   40.25300        6.3954813E-18
   40.41450        6.3936363E-18
   40.57600        6.3930928E-18
   40.73750        6.3943870E-18
   40.89900        6.3968983E-18
   41.06050        6.3992380E-18
   41.22200        6.4001003E-18
   41.38350        6.3990316E-18
   41.54500        6.3966460E-18
   41.70650        6.3941826E-18
   41.86800        6.3927070E-18
   42.02950        6.3924869E-18
   42.19100        6.3929183E-18
   42.35250        6.3930353E-18
   42.51400        6.3922235E-18
   42.67550        6.3906663E-18
   42.83700        6.3892109E-18
   42.99850        6.3887675E-18
   43.16000        6.3896638E-18
   43.32150        6.3914161E-18
   43.48300        6.3930858E-18
   43.64450        6.3939787E-18
   43.80600        6.3941860E-18
   43.96750        6.3945789E-18
   44.12900        6.3962183E-18
   44.29050        6.3995672E-18
   44.45200        6.4040340E-18
   44.61350        6.4081839E-18
   44.77500        6.4105331E-18
   44.93650        6.4104384E-18
   45.09800        6.4085280E-18
   45.25950        6.4063674E-18
   45.42100        6.4055431E-18
   45.58250        6.4067029E-18
   45.74400        6.4091588E-18
   45.90550        6.4113053E-18
   46.06700        6.4116039E-18
   46.22850        6.4095277E-18
   46.39000        6.4058823E-18
   46.55150        6.4023138E-18
   46.71300        6.4003195E-18
   46.87450        6.4003886E-18
   47.03600        6.4017886E-18
   47.19750        6.4030939E-18
   47.35900        6.4030959E-18
   47.52050        6.4015251E-18
   47.68200        6.3991495E-18
   47.84350        6.3972403E-18
   48.00500        6.3967850E-18
   48.16650        6.3979554E-18
   48.32800        6.4001454E-18
   48.48950        6.4025020E-18
   48.65100        6.4045447E-18
   48.81250        6.4064344E-18
   48.97400        6.4087125E-18
   49.13550        6.4117172E-18
   49.29700        6.4151401E-18
   49.45850        6.4180704E-18
   49.62000        6.4195510E-18
   49.78150        6.4192632E-18
   49.94300        6.4178623E-18
   50.10450        6.4166811E-18
   50.26600        6.4169500E-18
   50.42750        6.4190063E-18
   50.58900        6.4220218E-18
   50.75050        6.4244467E-18
   50.91200        6.4249298E-18
   51.07350        6.4231609E-18
   51.23500        6.4200937E-18
   51.39650        6.4173991E-18
   51.55800        6.4164595E-18
   51.71950        6.4175232E-18
   51.88100        6.4195473E-18
   52.04250        6.4208356E-18
   52.20400        6.4200796E-18
   52.36550        6.4171485E-18
   52.52700        6.4131557E-18
   52.68850        6.4097816E-18
   52.85000        6.4082865E-18
   53.01150        6.4088424E-18
   53.17300        6.4105621E-18
   53.33450        6.4121709E-18
   53.49600        6.4128430E-18
   53.65750        6.4126780E-18
   53.81900        6.4125283E-18
   53.98050        6.4133368E-18
   54.14200        6.4154482E-18
   54.30350        6.4183607E-18
   54.46500        6.4210780E-18
   54.62650        6.4228064E-18
   54.78800        6.4235029E-18
   54.94950        6.4238913E-18
   55.11100        6.4249190E-18
   55.27250        6.4270345E-18
   55.43400        6.4297870E-18
   55.59550        6.4320576E-18
   55.75700        6.4327859E-18
   55.91850        6.4317085E-18
   56.08000        6.4296162E-18
   56.24150        6.4279229E-18
   56.40300        6.4278063E-18
   56.56450        6.4294557E-18
   56.72600        6.4319058E-18
   56.88750        6.4335871E-18
   57.04900        6.4332520E-18
   57.21050        6.4307200E-18
   57.37200        6.4269717E-18
   57.53350        6.4235467E-18
   57.69500        6.4216285E-18
   57.85650        6.4213928E-18
   58.01800        6.4220260E-18
   58.17950        6.4223668E-18
   58.34100        6.4217311E-18
   58.50250        6.4203691E-18
   58.66400        6.4192661E-18
   58.82550        6.4194394E-18
   58.98700        6.4212253E-18
   59.14850        6.4240265E-18
   59.31000        6.4266904E-18
   59.47150        6.4282517E-18
   59.63300        6.4285408E-18
   59.79450        6.4282563E-18
   59.95600        6.4284507E-18
   60.11750        6.4297795E-18
   60.27900        6.4320204E-18
   60.44050        6.4341971E-18
   60.60200        6.4352518E-18
   60.76350        6.4348092E-18
   60.92500        6.4335234E-18
   61.08650        6.4327363E-18
   61.24800        6.4336441E-18
   61.40950        6.4365020E-18
   61.57100        6.4403935E-18
   61.73250        6.4437233E-18
   61.89400        6.4451465E-18
   62.05550        6.4443561E-18
   62.21700        6.4422340E-18
   62.37850        6.4402947E-18
   62.54000        6.4397603E-18
   62.70150        6.4408460E-18
   62.86300        6.4426815E-18
   63.02450        6.4438962E-18
   63.18600        6.4434805E-18
   63.34750        6.4413861E-18
   63.50900        6.4385013E-18
   63.67050        6.4360533E-18
   63.83200        6.4348551E-18
   63.99350        6.4348803E-18
   64.15500        6.4354226E-18
   64.31650        6.4356827E-18
   64.47800        6.4353510E-18
   64.63950        6.4347807E-18
   64.80100        6.4346475E-18
   64.96250        6.4353713E-18
   65.12400        6.4367204E-18
   65.28550        6.4379066E-18
   65.44700        6.4381159E-18
   65.60850        6.4371170E-18
   65.77000        6.4355123E-18
   65.93150        6.4344333E-18
   66.09300        6.4348315E-18
   66.25450        6.4368292E-18
   66.41600        6.4395622E-18
   66.57750        6.4416616E-18
   66.73900        6.4420925E-18
   66.90050        6.4408286E-18
   67.06200        6.4389141E-18
   67.22350        6.4378499E-18
   67.38500        6.4386664E-18
   67.54650        6.4412678E-18
   67.70800        6.4444661E-18
   67.86950        6.4466743E-18
   68.03100        6.4468509E-18
   68.19250        6.4451055E-18
   68.35400        6.4426203E-18
   68.51550        6.4409423E-18
   68.67700        6.4411024E-18
   68.83850        6.4430752E-18
   69.00000        6.4458897E-18
   69.16150        6.4482749E-18
   69.32300        6.4494052E-18
   69.48450        6.4492981E-18
   69.64600        6.4486359E-18
   69.80750        6.4482000E-18
   69.96900        6.4483224E-18
   70.13050        6.4487253E-18
   70.29200        6.4488361E-18
   70.45350        6.4483038E-18
   70.61500        6.4473352E-18
   70.77650        6.4465932E-18
   70.93800        6.4467231E-18
   71.09950        6.4478468E-18
   71.26100        6.4494003E-18
   71.42250        6.4504446E-18
   71.58400        6.4502725E-18
   71.74550        6.4489097E-18
   71.90700        6.4471656E-18
   72.06850        6.4461755E-18
   72.23000        6.4466999E-18
   72.39150        6.4486273E-18
   72.55300        6.4510075E-18
   72.71450        6.4526106E-18
   72.87600        6.4526784E-18
   73.03750        6.4513809E-18
   73.19900        6.4497005E-18
   73.36050        6.4488109E-18
   73.52200        6.4493477E-18
   73.68350        6.4510397E-18
   73.84500        6.4529042E-18
   74.00650        6.4538794E-18
   74.16800        6.4534696E-18
   74.32950        6.4520017E-18
   74.49100        6.4503619E-18
   74.65250        6.4494003E-18
   74.81400        6.4494081E-18
   74.97550        6.4499996E-18
   75.13700        6.4504541E-18
   75.29850        6.4502655E-18
   75.46000        6.4495181E-18
   75.62150        6.4488200E-18
   75.78300        6.4488461E-18
   75.94450        6.4497973E-18
   76.10600        6.4511799E-18
   76.26750        6.4520725E-18
   76.42900        6.4517308E-18
   76.59050        6.4501340E-18
   76.75200        6.4480933E-18
   76.91350        6.4468211E-18
   77.07500        6.4472136E-18
   77.23650        6.4492762E-18
   77.39800        6.4520634E-18
   77.55950        6.4541702E-18
   77.72100        6.4545011E-18
   77.88250        6.4528641E-18
   78.04400        6.4500513E-18
   78.20550        6.4473745E-18
   78.36700        6.4459431E-18
   78.52850        6.4461073E-18
   78.69000        6.4473728E-18
   78.85150        6.4487877E-18
   79.01300        6.4495231E-18
   79.17450        6.4492820E-18
   79.33600        6.4483216E-18
   79.49750        6.4471495E-18
   79.65900        6.4461515E-18
   79.82050        6.4454153E-18
   79.98200        6.4448280E-18
   80.14350        6.4443214E-18
   80.30500        6.4440323E-18
   80.46650        6.4442362E-18
   80.62800        6.4450981E-18
   80.78950        6.4464476E-18
   80.95100        6.4477955E-18
   81.11250        6.4486297E-18
   81.27400        6.4488353E-18
   81.43550        6.4489255E-18
   81.59700        6.4498705E-18
   81.75850        6.4525440E-18
   81.92000        6.4570856E-18
   82.08150        6.4625938E-18
   82.24300        6.4674005E-18
   82.40450        6.4698432E-18
   82.56600        6.4691318E-18
   82.72750        6.4658045E-18
   82.88900        6.4614928E-18
   83.05050        6.4581018E-18
   83.21200        6.4568403E-18
   83.37350        6.4576427E-18
   83.53500        6.4592731E-18
   83.69650        6.4600465E-18
   83.85800        6.4587553E-18
   84.01950        6.4552881E-18
   84.18100        6.4506419E-18
   84.34250        6.4463587E-18
   84.50400        6.4437370E-18
   84.66550        6.4432568E-18
   84.82700        6.4444856E-18
   84.98850        6.4464414E-18
   85.15000        6.4481359E-18
   85.31150        6.4489850E-18
   85.47300        6.4489193E-18
   85.63450        6.4482385E-18
   85.79600        6.4473861E-18
   85.95750        6.4467988E-18
   86.11900        6.4468596E-18
   86.28050        6.4478704E-18
   86.44200        6.4499665E-18
   86.60350        6.4529758E-18
   86.76500        6.4563320E-18
   86.92650        6.4591808E-18
   87.08800        6.4607132E-18
   87.24950        6.4605895E-18
   87.41100        6.4592115E-18
   87.57250        6.4576245E-18
   87.73400        6.4570198E-18
   87.89550        6.4580770E-18
   88.05700        6.4605105E-18
   88.21850        6.4631261E-18
   88.38000        6.4644078E-18
   88.54150        6.4633366E-18
   88.70300        6.4599923E-18
   88.86450        6.4555743E-18
   89.02600        6.4518214E-18
   89.18750        6.4501377E-18
   89.34900        6.4509049E-18
   89.51050        6.4533438E-18
   89.67200        6.4559739E-18
   89.83350        6.4573917E-18
   89.99500        6.4569454E-18
   90.15650        6.4549548E-18
   90.31800        6.4524083E-18
   90.47950        6.4503747E-18
   90.64100        6.4494726E-18
   90.80250        6.4496832E-18
   90.96400        6.4505381E-18
   91.12550        6.4515050E-18
   91.28700        6.4522966E-18
   91.44850        6.4529497E-18
   91.61000        6.4536830E-18
   91.77150        6.4547025E-18
   91.93300        6.4560893E-18
   92.09450        6.4578342E-18
   92.25600        6.4599203E-18
   92.41750        6.4623523E-18
   92.57900        6.4650667E-18
   92.74050        6.4678121E-18
   92.90200        6.4701013E-18
   93.06350        6.4713487E-18
   93.22500        6.4711390E-18
   93.38650        6.4694945E-18
   93.54800        6.4669386E-18
   93.70950        6.4642874E-18
   93.87100        6.4622476E-18
   94.03250        6.4610606E-18
   94.19400        6.4604067E-18
   94.35550        6.4596532E-18
   94.51700        6.4582887E-18
   94.67850        6.4562878E-18
   94.84000        6.4541574E-18
   95.00150        6.4526441E-18
   95.16300        6.4522780E-18
   95.32450        6.4530490E-18
   95.48600        6.4544059E-18
   95.64750        6.4555896E-18
   95.80900        6.4560777E-18
   95.97050        6.4558655E-18
   96.13200        6.4554197E-18
   96.29350        6.4553361E-18
   96.45500        6.4559317E-18
   96.61650        6.4570322E-18
   96.77800        6.4580873E-18
   96.93950        6.4585402E-18
   97.10100        6.4582044E-18
   97.26250        6.4574045E-18
   97.42400        6.4567820E-18
   97.58550        6.4568999E-18
   97.74700        6.4578842E-18
   97.90850        6.4593310E-18
   98.07000        6.4605316E-18
   98.23150        6.4608679E-18
   98.39300        6.4601474E-18
   98.55450        6.4586974E-18
   98.71600        6.4571857E-18
   98.87750        6.4562981E-18
   99.03900        6.4564416E-18
   99.20050        6.4576216E-18
   99.36200        6.4595092E-18
   99.52350        6.4616206E-18
   99.68500        6.4634921E-18
   99.84650        6.4647949E-18
   100.0080        6.4653760E-18
   100.1695        6.4652701E-18
   100.3310        6.4647023E-18
   100.4925        6.4640529E-18
   100.6540        6.4637411E-18
   100.8155        6.4640248E-18
   100.9770        6.4648015E-18
   101.1385        6.4655485E-18
   101.3000        6.4655001E-18
   101.4615        6.4640323E-18
   101.6230        6.4610676E-18
   101.7845        6.4572643E-18
   101.9460        6.4538203E-18
   102.1075        6.4519488E-18
   102.2690        6.4522689E-18
   102.4305        6.4544386E-18
   102.5920        6.4572655E-18
   102.7535        6.4592681E-18
   102.9150        6.4594257E-18
   103.0765        6.4577196E-18
   103.2380        6.4551649E-18
   103.3995        6.4533120E-18
   103.5610        6.4534510E-18
   103.7225        6.4559553E-18
   103.8840        6.4600788E-18
   104.0455        6.4643147E-18
   104.2070        6.4671127E-18
   104.3685        6.4675858E-18
   104.5300        6.4658752E-18
   104.6915        6.4630268E-18
   104.8530        6.4604899E-18
   105.0145        6.4594803E-18
   105.1760        6.4605043E-18
   105.3375        6.4632084E-18
   105.4990        6.4665713E-18
   105.6605        6.4693332E-18
   105.8220        6.4704797E-18
   105.9835        6.4696124E-18
   106.1450        6.4670941E-18
   106.3065        6.4639243E-18
   106.4680        6.4613770E-18
   106.6295        6.4605118E-18
   106.7910        6.4617166E-18
   106.9525        6.4644777E-18
   107.1140        6.4675135E-18
   107.2755        6.4692729E-18
   107.4370        6.4686248E-18
   107.5985        6.4654228E-18
   107.7600        6.4606520E-18
   107.9215        6.4560371E-18
   108.0830        6.4532570E-18
   108.2445        6.4531329E-18
   108.4060        6.4552124E-18
   108.5675        6.4579748E-18
   108.7290        6.4595804E-18
   108.8905        6.4588078E-18
   109.0520        6.4557013E-18
   109.2135        6.4515939E-18
   109.3750        6.4484862E-18
   109.5365        6.4480842E-18
   109.6980        6.4509810E-18
   109.8595        6.4563788E-18
   110.0210        6.4624722E-18
   110.1825        6.4672789E-18
   110.3440        6.4694941E-18
   110.5055        6.4689784E-18
   110.6670        6.4666863E-18
   110.8285        6.4641340E-18
   110.9900        6.4626893E-18
   111.1515        6.4630161E-18
   111.3130        6.4648756E-18
   111.4745        6.4673149E-18
   111.6360        6.4691178E-18
   111.7975        6.4693080E-18
   111.9590        6.4675209E-18
   112.1205        6.4641249E-18
   112.2820        6.4600775E-18
   112.4435        6.4565719E-18
   112.6050        6.4546045E-18
   112.7665        6.4545883E-18
   112.9280        6.4561736E-18
   113.0895        6.4583607E-18
   113.2510        6.4599005E-18
   113.4125        6.4598525E-18
   113.5740        6.4580455E-18
   113.7355        6.4552228E-18
   113.8970        6.4527491E-18
   114.0585        6.4519922E-18
   114.2200        6.4536598E-18
   114.3815        6.4574293E-18
   114.5430        6.4620656E-18
   114.7045        6.4659852E-18
   114.8660        6.4679969E-18
   115.0275        6.4678472E-18
   115.1890        6.4662979E-18
   115.3505        6.4647015E-18
   115.5120        6.4643052E-18
   115.6735        6.4656378E-18
   115.8350        6.4682852E-18
   115.9965        6.4711485E-18
   116.1580        6.4730208E-18
   116.3195        6.4731652E-18
   116.4810        6.4716121E-18
   116.6425        6.4690607E-18
   116.8040        6.4664973E-18
   116.9655        6.4647465E-18
   117.1270        6.4641778E-18
   117.2885        6.4646593E-18
   117.4500        6.4657172E-18
   117.6115        6.4667802E-18
   117.7730        6.4673757E-18
   117.9345        6.4672376E-18
   118.0960        6.4663198E-18
   118.2575        6.4647689E-18
   118.4190        6.4628775E-18
   118.5805        6.4610176E-18
   118.7420        6.4595357E-18