  -27.90000        8.7371564E-18
  -27.73850        8.7643665E-18
  -27.57700        8.8093983E-18
  -27.41550        8.8578553E-18
  -27.25400        8.8960793E-18
  -27.09250        8.9164966E-18
  -26.93100        8.9203811E-18
  -26.76950        8.9169086E-18
  -26.60800        8.9189327E-18
  -26.44650        8.9372754E-18
  -26.28500        8.9759279E-18
  -26.12350        9.0301744E-18
  -25.96200        9.0884104E-18
  -25.80050        9.1368915E-18
  -25.63900        9.1654052E-18
  -25.47750        9.1715081E-18
  -25.31600        9.1615613E-18
  -25.15450        9.1481213E-18
  -24.99300        9.1447985E-18
  -24.83150        9.1607110E-18
  -24.67000        9.1968199E-18
  -24.50850        9.2456624E-18
  -24.34700        9.2945537E-18
  -24.18550        9.3308959E-18
  -24.02400        9.3473907E-18
  -23.86250        9.3449886E-18
  -23.70100        9.3323807E-18
  -23.53950        9.3222808E-18
  -23.37800        9.3260950E-18
  -23.21650        9.3491940E-18
  -23.05500        9.3887572E-18
  -22.89350        9.4350520E-18
  -22.73200        9.4755607E-18
  -22.57050        9.5002206E-18
  -22.40900        9.5055650E-18
  -22.24750        9.4960566E-18
  -22.08600        9.4821169E-18
  -21.92450        9.4756906E-18
  -21.76300        9.4852495E-18
  -21.60150        9.5123074E-18
  -21.44000        9.5508830E-18
  -21.27850        9.5900888E-18
  -21.11700        9.6187142E-18
  -20.95550        9.6298853E-18
  -20.79400        9.6238585E-18
  -20.63250        9.6078186E-18
  -20.47100        9.5928268E-18
  -20.30950        9.5892253E-18
  -20.14800        9.6024345E-18
  -19.98650        9.6308688E-18
  -19.82500        9.6667908E-18
  -19.66350        9.6996745E-18
  -19.50200        9.7206394E-18
  -19.34050        9.7260600E-18
  -19.17900        9.7188974E-18
  -19.01750        9.7072341E-18
  -18.85600        9.7006986E-18
  -18.69450        9.7063276E-18
  -18.53300        9.7256207E-18
  -18.37150        9.7539988E-18
  -18.21000        9.7828442E-18
  -18.04850        9.8032111E-18
  -17.88700        9.8096151E-18
  -17.72550        9.8022979E-18
  -17.56400        9.7870579E-18
  -17.40250        9.7727675E-18
  -17.24100        9.7676688E-18
  -17.07950        9.7760258E-18
  -16.91800        9.7965266E-18
  -16.75650        9.8230444E-18
  -16.59500        9.8473710E-18
  -16.43350        9.8626970E-18
  -16.27200        9.8663721E-18
  -16.11050        9.8607903E-18
  -15.94900        9.8521074E-18
  -15.78750        9.8474173E-18
  -15.62600        9.8516442E-18
  -15.46450        9.8654937E-18
  -15.30300        9.8852980E-18
  -15.14150        9.9047781E-18
  -14.98000        9.9178840E-18
  -14.81850        9.9214855E-18
  -14.65700        9.9167267E-18
  -14.49550        9.9085186E-18
  -14.33400        9.9034083E-18
  -14.17250        9.9067799E-18
  -14.01100        9.9206112E-18
  -13.84950        9.9427118E-18
  -13.68800        9.9677481E-18
  -13.52650        9.9895426E-18
  -13.36500        1.0003634E-17
  -13.20350        1.0008985E-17
  -13.04200        1.0008124E-17
  -12.88050        1.0005727E-17
  -12.71900        1.0006317E-17
  -12.55750        1.0012129E-17
  -12.39600        1.0022120E-17
  -12.23450        1.0032537E-17
  -12.07300        1.0038774E-17
  -11.91150        1.0037650E-17
  -11.75000        1.0029071E-17
  -11.58850        1.0016310E-17
  -11.42700        1.0004765E-17
  -11.26550        9.9997674E-18
  -11.10400        1.0004395E-17
  -10.94250        1.0018281E-17
  -10.78100        1.0037941E-17
  -10.61950        1.0058447E-17
  -10.45800        1.0075687E-17
  -10.29650        1.0088191E-17
  -10.13500        1.0097669E-17
  -9.973500        1.0108053E-17
  -9.812000        1.0123452E-17
  -9.650500        1.0145994E-17
  -9.489000        1.0174527E-17
  -9.327500        1.0204819E-17
  -9.166000        1.0231190E-17
  -9.004500        1.0248873E-17
  -8.843000        1.0256062E-17
  -8.681500        1.0254706E-17
  -8.520000        1.0249668E-17
  -8.358500        1.0246584E-17
  -8.197000        1.0249353E-17
  -8.035500        1.0258365E-17
  -7.874000        1.0270287E-17
  -7.712500        1.0279558E-17
  -7.551000        1.0280953E-17
  -7.389500        1.0272119E-17
  -7.228000        1.0254945E-17
  -7.066500        1.0235107E-17
  -6.905000        1.0219912E-17
  -6.743500        1.0215345E-17
  -6.582000        1.0223561E-17
  -6.420500        1.0241973E-17
  -6.259000        1.0264354E-17
  -6.097500        1.0283560E-17
  -5.936000        1.0294687E-17
  -5.774500        1.0297305E-17
  -5.613000        1.0295722E-17
  -5.451500        1.0297116E-17
  -5.290000        1.0308288E-17
  -5.128500        1.0332421E-17
  -4.967000        1.0367304E-17
  -4.805500        1.0405850E-17
  -4.644000        1.0438787E-17
  -4.482500        1.0458417E-17
  -4.321000        1.0461873E-17
  -4.159500        1.0452421E-17
  -3.998000        1.0438222E-17
  -3.836500        1.0428986E-17
  -3.675000        1.0431934E-17
  -3.513500        1.0448751E-17
  -3.352000        1.0474877E-17
  -3.190500        1.0501452E-17
  -3.029000        1.0519148E-17
  -2.867500        1.0522268E-17
  -2.706000        1.0511360E-17
  -2.544500        1.0493174E-17
  -2.383000        1.0477942E-17
  -2.221500        1.0475048E-17
  -2.060000        1.0488931E-17
  -1.898500        1.0516982E-17
  -1.737000        1.0550387E-17
  -1.575500        1.0577650E-17
  -1.414000        1.0589378E-17
  -1.252500        1.0582318E-17
  -1.091000        1.0560923E-17
 -0.9295000        1.0535712E-17
 -0.7680000        1.0519033E-17
 -0.6065000        1.0519971E-17
 -0.4450000        1.0540533E-17
 -0.2835000        1.0574746E-17
 -0.1220000        1.0611126E-17
  3.9500002E-02    1.0637500E-17
  0.2010000        1.0646183E-17
  0.3625000        1.0637282E-17
  0.5240000        1.0618716E-17
  0.6855000        1.0602869E-17
  0.8470000        1.0601277E-17
   1.008500        1.0619590E-17
   1.170000        1.0654958E-17
   1.331500        1.0697026E-17
   1.493000        1.0732129E-17
   1.654500        1.0749003E-17
   1.816000        1.0743577E-17
   1.977500        1.0720833E-17
   2.139000        1.0692896E-17
   2.300500        1.0674130E-17
   2.462000        1.0675247E-17
   2.623500        1.0698888E-17
   2.785000        1.0738522E-17
   2.946500        1.0781142E-17
   3.108000        1.0812658E-17
   3.269500        1.0823739E-17
   3.431000        1.0813702E-17
   3.592500        1.0790755E-17
   3.754000        1.0768529E-17
   3.915500        1.0760275E-17
   4.077000        1.0773179E-17
   4.238500        1.0805185E-17
   4.400000        1.0845698E-17
   4.561500        1.0879914E-17
   4.723000        1.0895012E-17
   4.884500        1.0885613E-17
   5.046000        1.0856207E-17
   5.207500        1.0819467E-17
   5.369000        1.0791132E-17
   5.530500        1.0783548E-17
   5.692000        1.0800591E-17
   5.853500        1.0836112E-17
   6.015000        1.0876566E-17
   6.176500        1.0906761E-17
   6.338000        1.0916269E-17
   6.499500        1.0903845E-17
   6.661000        1.0877946E-17
   6.822500        1.0853168E-17
   6.984000        1.0844068E-17
   7.145500        1.0859002E-17
   7.307000        1.0896554E-17
   7.468500        1.0946061E-17
   7.630000        1.0992004E-17
   7.791500        1.1020415E-17
   7.953000        1.1024587E-17
   8.114500        1.1007737E-17
   8.276000        1.0981481E-17
   8.437500        1.0960828E-17
   8.599000        1.0957776E-17
   8.760500        1.0976215E-17
   8.922000        1.1010277E-17
   9.083500        1.1046793E-17
   9.245000        1.1070860E-17
   9.406500        1.1072169E-17
   9.568000        1.1049446E-17
   9.729500        1.1011168E-17
   9.891000        1.0972236E-17
   10.05250        1.0948012E-17
   10.21400        1.0948196E-17
   10.37550        1.0973101E-17
   10.53700        1.1013827E-17
   10.69850        1.1056247E-17
   10.86000        1.1087067E-17
   11.02150        1.1099403E-17
   11.18300        1.1095514E-17
   11.34450        1.1085569E-17
   11.50600        1.1083004E-17
   11.66750        1.1098488E-17
   11.82900        1.1135062E-17
   11.99050        1.1186545E-17
   12.15200        1.1239859E-17
   12.31350        1.1280273E-17
   12.47500        1.1297334E-17
   12.63650        1.1289022E-17
   12.79800        1.1262390E-17
   12.95950        1.1230497E-17
   13.12100        1.1206964E-17
   13.28250        1.1200457E-17
   13.44400        1.1211412E-17
   13.60550        1.1232285E-17
   13.76700        1.1251163E-17
   13.92850        1.1257111E-17
   14.09000        1.1244986E-17
   14.25150        1.1217678E-17
   14.41300        1.1184899E-17
   14.57450        1.1159080E-17
   14.73600        1.1150163E-17
   14.89750        1.1161476E-17
   15.05900        1.1188438E-17
   15.22050        1.1220585E-17
   15.38200        1.1246042E-17
   15.54350        1.1256490E-17
   15.70500        1.1250559E-17
   15.86650        1.1234223E-17
   16.02800        1.1218080E-17
   16.18950        1.1212732E-17
   16.35100        1.1224240E-17
   16.51250        1.1251606E-17
   16.67400        1.1287291E-17
   16.83550        1.1320500E-17
   16.99700        1.1341784E-17
   17.15850        1.1346956E-17
   17.32000        1.1338662E-17
   17.48150        1.1324992E-17
   17.64300        1.1315796E-17
   17.80450        1.1318364E-17
   17.96600        1.1334348E-17
   18.12750        1.1359231E-17
   18.28900        1.1384502E-17
   18.45050        1.1401518E-17
   18.61200        1.1405338E-17
   18.77350        1.1396855E-17
   18.93500        1.1382344E-17
   19.09650        1.1370679E-17
   19.25800        1.1369482E-17
   19.41950        1.1381886E-17
   19.58100        1.1405323E-17
   19.74250        1.1432787E-17
   19.90400        1.1455970E-17
   20.06550        1.1468863E-17
   20.22700        1.1470250E-17
   20.38850        1.1464030E-17
   20.55000        1.1457325E-17
   20.71150        1.1457212E-17
   20.87300        1.1467589E-17
   21.03450        1.1487513E-17
   21.19600        1.1511748E-17
   21.35750        1.1533214E-17
   21.51900        1.1546235E-17
   21.68050        1.1549103E-17
   21.84200        1.1544819E-17
   22.00350        1.1539682E-17
   22.16500        1.1540384E-17
   22.32650        1.1550901E-17
   22.48800        1.1570612E-17
   22.64950        1.1594476E-17
   22.81100        1.1615208E-17
   22.97250        1.1626489E-17
   23.13400        1.1625765E-17
   23.29550        1.1615382E-17
   23.45700        1.1601523E-17
   23.61850        1.1591454E-17
   23.78000        1.1590290E-17
   23.94150        1.1598762E-17
   24.10300        1.1612995E-17
   24.26450        1.1626402E-17
   24.42600        1.1632813E-17
   24.58750        1.1629436E-17
   24.74900        1.1618280E-17
   24.91050        1.1605356E-17
   25.07200        1.1597990E-17
   25.23350        1.1601442E-17
   25.39500        1.1616345E-17
   25.55650        1.1638160E-17
   25.71800        1.1658940E-17
   25.87950        1.1670672E-17
   26.04100        1.1668770E-17
   26.20250        1.1654129E-17
   26.36400        1.1632874E-17
   26.52550        1.1613825E-17
   26.68700        1.1604786E-17
   26.84850        1.1609255E-17
   27.01000        1.1625009E-17
   27.17150        1.1645207E-17
   27.33300        1.1661566E-17
   27.49450        1.1668238E-17
   27.65600        1.1664652E-17
   27.81750        1.1656038E-17
   27.97900        1.1651315E-17
   28.14050        1.1659202E-17
   28.30200        1.1684221E-17
   28.46350        1.1724346E-17
   28.62500        1.1771407E-17
   28.78650        1.1814149E-17
   28.94800        1.1842723E-17
   29.10950        1.1852699E-17
   29.27100        1.1846844E-17
   29.43250        1.1833865E-17
   29.59400        1.1824588E-17
   29.75550        1.1827191E-17
   29.91700        1.1843561E-17
   30.07850        1.1868381E-17
   30.24000        1.1891386E-17
   30.40150        1.1901880E-17
   30.56300        1.1893552E-17
   30.72450        1.1867521E-17
   30.88600        1.1832224E-17
   31.04750        1.1800139E-17
   31.20900        1.1782682E-17
   31.37050        1.1785448E-17
   31.53200        1.1805854E-17
   31.69350        1.1834243E-17
   31.85500        1.1858004E-17
   32.01650        1.1867011E-17
   32.17800        1.1858046E-17
   32.33950        1.1836305E-17
   32.50100        1.1813300E-17
   32.66250        1.1801999E-17
   32.82400        1.1811249E-17
   32.98550        1.1841833E-17
   33.14700        1.1885881E-17
   33.30850        1.1929930E-17
   33.47000        1.1960386E-17
   33.63150        1.1969111E-17
   33.79300        1.1956750E-17
   33.95450        1.1932392E-17
   34.11600        1.1909647E-17
   34.27750        1.1900807E-17
   34.43900        1.1911559E-17
   34.60050        1.1938501E-17
   34.76200        1.1970572E-17
   34.92350        1.1993805E-17
   35.08500        1.1997419E-17
   35.24650        1.1978632E-17
   35.40800        1.1944142E-17
   35.56950        1.1907555E-17
   35.73100        1.1883845E-17
   35.89250        1.1883144E-17
   36.05400        1.1906502E-17
   36.21550        1.1945423E-17
   36.37700        1.1985382E-17
   36.53850        1.2011872E-17
   36.70000        1.2016405E-17
   36.86150        1.1999972E-17
   37.02300        1.1972502E-17
   37.18450        1.1948567E-17
   37.34600        1.1941156E-17
   37.50750        1.1956175E-17
   37.66900        1.1989988E-17
   37.83050        1.2031029E-17
   37.99200        1.2064794E-17
   38.15350        1.2080071E-17
   38.31500        1.2073790E-17
   38.47650        1.2052408E-17
   38.63800        1.2029267E-17
   38.79950        1.2019014E-17
   38.96100        1.2031413E-17
   39.12250        1.2067170E-17
   39.28400        1.2117504E-17
   39.44550        1.2167671E-17
   39.60700        1.2202948E-17
   39.76850        1.2214599E-17
   39.93000        1.2203310E-17
   40.09150        1.2178686E-17
   40.25300        1.2155039E-17
   40.41450        1.2145271E-17
   40.57600        1.2155450E-17
   40.73750        1.2182331E-17
   40.89900        1.2214888E-17
   41.06050        1.2239151E-17
   41.22200        1.2244269E-17
   41.38350        1.2227221E-17
   41.54500        1.2194153E-17
   41.70650        1.2157795E-17
   41.86800        1.2132088E-17
   42.02950        1.2126316E-17
   42.19100        1.2141254E-17
   42.35250        1.2168924E-17
   42.51400        1.2196052E-17
   42.67550        1.2209691E-17
   42.83700        1.2202659E-17
   42.99850        1.2176470E-17
   43.16000        1.2140597E-17
   43.32150        1.2108434E-17
   43.48300        1.2091706E-17
   43.64450        1.2095719E-17
   43.80600        1.2117403E-17
   43.96750        1.2146903E-17
   44.12900        1.2171975E-17
   44.29050        1.2183250E-17
   44.45200        1.2178157E-17
   44.61350        1.2161884E-17
   44.77500        1.2145005E-17
   44.93650        1.2138878E-17
   45.09800        1.2150750E-17
   45.25950        1.2180669E-17
   45.42100        1.2221449E-17
   45.58250        1.2261689E-17
   45.74400        1.2290494E-17
   45.90550        1.2301915E-17
   46.06700        1.2297224E-17
   46.22850        1.2284114E-17
   46.39000        1.2273239E-17
   46.55150        1.2273576E-17
   46.71300        1.2288609E-17
   46.87450        1.2314944E-17
   47.03600        1.2343864E-17
   47.19750        1.2365141E-17
   47.35900        1.2371399E-17
   47.52050        1.2361184E-17
   47.68200        1.2339438E-17
   47.84350        1.2315283E-17
   48.00500        1.2298093E-17
   48.16650        1.2293624E-17
   48.32800        1.2301820E-17
   48.48950        1.2317200E-17
   48.65100        1.2331565E-17
   48.81250        1.2337794E-17
   48.97400        1.2333055E-17
   49.13550        1.2320055E-17
   49.29700        1.2305831E-17
   49.45850        1.2298680E-17
   49.62000        1.2304560E-17
   49.78150        1.2324540E-17
   49.94300        1.2354358E-17
   50.10450        1.2386195E-17
   50.26600        1.2411896E-17
   50.42750        1.2426189E-17
   50.58900        1.2428579E-17
   50.75050        1.2423157E-17
   50.91200        1.2416472E-17
   51.07350        1.2414466E-17
   51.23500        1.2419834E-17
   51.39650        1.2430937E-17
   51.55800        1.2442730E-17
   51.71950        1.2449223E-17
   51.88100        1.2446358E-17
   52.04250        1.2434008E-17
   52.20400        1.2416203E-17
   52.36550        1.2399508E-17
   52.52700        1.2390253E-17
   52.68850        1.2391868E-17
   52.85000        1.2403481E-17
   53.01150        1.2420394E-17
   53.17300        1.2436211E-17
   53.33450        1.2445640E-17
   53.49600        1.2446741E-17
   53.65750        1.2441599E-17
   53.81900        1.2435193E-17
   53.98050        1.2432971E-17
   54.14200        1.2438288E-17
   54.30350        1.2450833E-17
   54.46500        1.2466785E-17
   54.62650        1.2480583E-17
   54.78800        1.2487502E-17
   54.94950        1.2485867E-17
   55.11100        1.2477886E-17
   55.27250        1.2468716E-17
   55.43400        1.2464190E-17
   55.59550        1.2468206E-17
   55.75700        1.2480961E-17
   55.91850        1.2498815E-17
   56.08000        1.2515856E-17
   56.24150        1.2526472E-17
   56.40300        1.2527808E-17
   56.56450        1.2521025E-17
   56.72600        1.2510795E-17
   56.88750        1.2503249E-17
   57.04900        1.2503273E-17
   57.21050        1.2512338E-17
   57.37200        1.2527843E-17
   57.53350        1.2544260E-17
   57.69500        1.2555616E-17
   57.85650        1.2558214E-17
   58.01800        1.2552391E-17
   58.17950        1.2542502E-17
   58.34100        1.2535094E-17
   58.50250        1.2536045E-17
   58.66400        1.2547896E-17
   58.82550        1.2568567E-17
   58.98700        1.2592085E-17
   59.14850        1.2611040E-17
   59.31000        1.2619744E-17
   59.47150        1.2616731E-17
   59.63300        1.2605458E-17
   59.79450        1.2592887E-17
   59.95600        1.2586505E-17
   60.11750        1.2591083E-17
   60.27900        1.2606563E-17
   60.44050        1.2628035E-17
   60.60200        1.2647825E-17
   60.76350        1.2658833E-17
   60.92500        1.2657653E-17
   61.08650        1.2646127E-17
   61.24800        1.2630610E-17
   61.40950        1.2619261E-17
   61.57100        1.2618493E-17
   61.73250        1.2630139E-17
   61.89400        1.2650564E-17
   62.05550        1.2672139E-17
   62.21700        1.2686464E-17
   62.37850        1.2687986E-17
   62.54000        1.2676450E-17
   62.70150        1.2657132E-17
   62.86300        1.2638719E-17
   63.02450        1.2629696E-17
   63.18600        1.2634774E-17
   63.34750        1.2652872E-17
   63.50900        1.2677505E-17
   63.67050        1.2699452E-17
   63.83200        1.2710591E-17
   63.99350        1.2707266E-17
   64.15500        1.2691786E-17
   64.31650        1.2671404E-17
   64.47800        1.2655176E-17
   64.63950        1.2650059E-17
   64.80100        1.2657887E-17
   64.96250        1.2674545E-17
   65.12400        1.2691734E-17
   65.28550        1.2700579E-17
   65.44700        1.2695576E-17
   65.60850        1.2677169E-17
   65.77000        1.2651828E-17
   65.93150        1.2629561E-17
   66.09300        1.2619874E-17
   66.25450        1.2627874E-17
   66.41600        1.2652162E-17
   66.57750        1.2685404E-17
   66.73900        1.2717359E-17
   66.90050        1.2739072E-17
   67.06200        1.2746467E-17
   67.22350        1.2741829E-17
   67.38500        1.2732574E-17
   67.54650        1.2727848E-17
   67.70800        1.2734434E-17
   67.86950        1.2753725E-17
   68.03100        1.2781040E-17
   68.19250        1.2807562E-17
   68.35400        1.2824086E-17
   68.51550        1.2824961E-17
   68.67700        1.2810564E-17
   68.83850        1.2787259E-17
   69.00000        1.2764864E-17
   69.16150        1.2752681E-17
   69.32300        1.2755746E-17
   69.48450        1.2772876E-17
   69.64600        1.2797280E-17
   69.80750        1.2819479E-17
   69.96900        1.2831288E-17
   70.13050        1.2829202E-17
   70.29200        1.2815768E-17
   70.45350        1.2798426E-17
   70.61500        1.2786292E-17
   70.77650        1.2786287E-17
   70.93800        1.2800225E-17
   71.09950        1.2824087E-17
   71.26100        1.2849761E-17
   71.42250        1.2868500E-17
   71.58400        1.2874611E-17
   71.74550        1.2867822E-17
   71.90700        1.2853333E-17
   72.06850        1.2839552E-17
   72.23000        1.2834486E-17
   72.39150        1.2842334E-17
   72.55300        1.2861700E-17
   72.71450        1.2886191E-17
   72.87600        1.2907097E-17
   73.03750        1.2917017E-17
   73.19900        1.2912878E-17
   73.36050        1.2897125E-17
   73.52200        1.2876578E-17
   73.68350        1.2859542E-17
   73.84500        1.2852368E-17
   74.00650        1.2856952E-17
   74.16800        1.2870158E-17
   74.32950        1.2885358E-17
   74.49100        1.2895383E-17
   74.65250        1.2895586E-17
   74.81400        1.2885749E-17
   74.97550        1.2870054E-17
   75.13700        1.2855188E-17
   75.29850        1.2847463E-17
   75.46000        1.2850143E-17
   75.62150        1.2862137E-17
   75.78300        1.2878549E-17
   75.94450        1.2892810E-17
   76.10600        1.2899479E-17
   76.26750        1.2896513E-17
   76.42900        1.2886085E-17
   76.59050        1.2873642E-17
   76.75200        1.2865624E-17
   76.91350        1.2866835E-17
   77.07500        1.2878548E-17
   77.23650        1.2898111E-17
   77.39800        1.2920162E-17
   77.55950        1.2938894E-17
   77.72100        1.2950383E-17
   77.88250        1.2954016E-17
   78.04400        1.2952454E-17
   78.20550        1.2950199E-17
   78.36700        1.2951451E-17
   78.52850        1.2958208E-17
   78.69000        1.2969402E-17
   78.85150        1.2981442E-17
   79.01300        1.2989862E-17
   79.17450        1.2991319E-17
   79.33600        1.2985086E-17
   79.49750        1.2973386E-17
   79.65900        1.2960476E-17
   79.82050        1.2950912E-17
   79.98200        1.2947764E-17
   80.14350        1.2951524E-17
   80.30500        1.2960137E-17
   80.46650        1.2970068E-17
   80.62800        1.2977888E-17
   80.78950        1.2981687E-17
   80.95100        1.2981707E-17
   81.11250        1.2980012E-17
   81.27400        1.2979389E-17
   81.43550        1.2982020E-17
   81.59700        1.2988531E-17
   81.75850        1.2997794E-17
   81.92000        1.3007533E-17
   82.08150        1.3015437E-17
   82.24300        1.3020248E-17
   82.40450        1.3022357E-17
   82.56600        1.3023649E-17
   82.72750        1.3026689E-17
   82.88900        1.3033611E-17
   83.05050        1.3045205E-17
   83.21200        1.3060583E-17
   83.37350        1.3077565E-17
   83.53500        1.3093586E-17
   83.69650        1.3106717E-17
   83.85800        1.3116352E-17
   84.01950        1.3123264E-17
   84.18100        1.3129036E-17
   84.34250        1.3135137E-17
   84.50400        1.3142090E-17
   84.66550        1.3149137E-17
   84.82700        1.3154531E-17
   84.98850        1.3156360E-17
   85.15000        1.3153475E-17
   85.31150        1.3146113E-17
   85.47300        1.3135878E-17
   85.63450        1.3125112E-17
   85.79600        1.3115908E-17
   85.95750        1.3109230E-17
   86.11900        1.3104547E-17
   86.28050        1.3100154E-17
   86.44200        1.3094046E-17
   86.60350        1.3084938E-17
   86.76500        1.3072997E-17
   86.92650        1.3059908E-17
   87.08800        1.3048273E-17
   87.24950        1.3040576E-17
   87.41100        1.3038175E-17
   87.57250        1.3040767E-17
   87.73400        1.3046546E-17
   87.89550        1.3052999E-17
   88.05700        1.3058002E-17
   88.21850        1.3060726E-17
   88.38000        1.3061985E-17
   88.54150        1.3063847E-17
   88.70300        1.3068678E-17
   88.86450        1.3078000E-17
   89.02600        1.3091663E-17
   89.18750        1.3107687E-17
   89.34900        1.3122882E-17
   89.51050        1.3134018E-17
   89.67200        1.3139084E-17
   89.83350        1.3138126E-17
   89.99500        1.3133310E-17
   90.15650        1.3128128E-17
   90.31800        1.3126071E-17
   90.47950        1.3129259E-17
   90.64100        1.3137608E-17
   90.80250        1.3148900E-17
   90.96400        1.3159738E-17
   91.12550        1.3167034E-17
   91.28700        1.3169392E-17
   91.44850        1.3167808E-17
   91.61000        1.3165338E-17
   91.77150        1.3165850E-17
   91.93300        1.3172340E-17
   92.09450        1.3185521E-17
   92.25600        1.3203315E-17
   92.41750        1.3221498E-17
   92.57900        1.3235312E-17
   92.74050        1.3241373E-17
   92.90200        1.3239124E-17
   93.06350        1.3231168E-17
   93.22500        1.3222327E-17
   93.38650        1.3217751E-17
   93.54800        1.3220853E-17
   93.70950        1.3231893E-17
   93.87100        1.3247832E-17
   94.03250        1.3263548E-17
   94.19400        1.3273941E-17
   94.35550        1.3276073E-17
   94.51700        1.3270454E-17
   94.67850        1.3260910E-17
   94.84000        1.3253018E-17
   95.00150        1.3251753E-17
   95.16300        1.3259283E-17
   95.32450        1.3273875E-17
   95.48600        1.3290405E-17
   95.64750        1.3302355E-17
   95.80900        1.3304503E-17
   95.97050        1.3295204E-17
   96.13200        1.3277289E-17
   96.29350        1.3257120E-17
   96.45500        1.3242109E-17
   96.61650        1.3237712E-17
   96.77800        1.3245139E-17
   96.93950        1.3260775E-17
   97.10100        1.3277639E-17
   97.26250        1.3288300E-17
   97.42400        1.3288060E-17
   97.58550        1.3277045E-17
   97.74700        1.3260267E-17
   97.90850        1.3245572E-17
   98.07000        1.3240314E-17
   98.23150        1.3248146E-17
   98.39300        1.3267341E-17
   98.55450        1.3291383E-17
   98.71600        1.3311655E-17
   98.87750        1.3321082E-17
   99.03900        1.3317203E-17
   99.20050        1.3303323E-17
   99.36200        1.3287227E-17
   99.52350        1.3277934E-17
   99.68500        1.3281862E-17
   99.84650        1.3300012E-17
   100.0080        1.3327389E-17
   100.1695        1.3354957E-17
   100.3310        1.3373331E-17
   100.4925        1.3376691E-17
   100.6540        1.3365232E-17
   100.8155        1.3345124E-17
   100.9770        1.3325945E-17
   101.1385        1.3316643E-17
   101.3000        1.3321740E-17
   101.4615        1.3339377E-17
   101.6230        1.3362093E-17
   101.7845        1.3380019E-17
   101.9460        1.3385162E-17
   102.1075        1.3374949E-17
   102.2690        1.3353469E-17
   102.4305        1.3329841E-17
   102.5920        1.3314363E-17
   102.7535        1.3314073E-17
   102.9150        1.3329652E-17
   103.0765        1.3355025E-17
   103.2380        1.3379884E-17
   103.3995        1.3394070E-17
   103.5610        1.3391936E-17
   103.7225        1.3374800E-17
   103.8840        1.3350431E-17
   104.0455        1.3329755E-17
   104.2070        1.3322221E-17
   104.3685        1.3331822E-17
   104.5300        1.3355496E-17
   104.6915        1.3384571E-17
   104.8530        1.3408604E-17
   105.0145        1.3419938E-17
   105.1760        1.3416965E-17
   105.3375        1.3404712E-17
   105.4990        1.3392510E-17
   105.6605        1.3389773E-17
   105.8220        1.3401745E-17
   105.9835        1.3427059E-17
   106.1450        1.3458172E-17
   106.3065        1.3484468E-17
   106.4680        1.3496704E-17
   106.6295        1.3490886E-17
   106.7910        1.3469898E-17
   106.9525        1.3442247E-17
   107.1140        1.3418444E-17
   107.2755        1.3406616E-17
   107.4370        1.3409216E-17
   107.5985        1.3422238E-17
   107.7600        1.3437215E-17
   107.9215        1.3445123E-17
   108.0830        1.3440447E-17
   108.2445        1.3423655E-17
   108.4060        1.3400988E-17
   108.5675        1.3381700E-17
   108.7290        1.3373973E-17
   108.8905        1.3381317E-17
   109.0520        1.3401041E-17
   109.2135        1.3425460E-17
   109.3750        1.3445274E-17
   109.5365        1.3453636E-17
   109.6980        1.3449092E-17
   109.8595        1.3436125E-17
   110.0210        1.3423078E-17
   110.1825        1.3418421E-17
   110.3440        1.3427014E-17
   110.5055        1.3448026E-17
   110.6670        1.3475394E-17
   110.8285        1.3500567E-17
   110.9900        1.3516267E-17
   111.1515        1.3519601E-17
   111.3130        1.3513152E-17
   111.4745        1.3503619E-17
   111.6360        1.3498678E-17
   111.7975        1.3503482E-17
   111.9590        1.3518384E-17
   112.1205        1.3538849E-17
   112.2820        1.3557571E-17
   112.4435        1.3567803E-17
   112.6050        1.3566384E-17
   112.7665        1.3555152E-17
   112.9280        1.3540100E-17
   113.0895        1.3528702E-17
   113.2510        1.3526601E-17
   113.4125        1.3535127E-17
   113.5740        1.3550745E-17
   113.7355        1.3566640E-17
   113.8970        1.3575736E-17
   114.0585        1.3573815E-17
   114.2200        1.3561326E-17
   114.3815        1.3543121E-17
   114.5430        1.3526239E-17
   114.7045        1.3516746E-17
   114.8660        1.3517054E-17
   115.0275        1.3524941E-17
   115.1890        1.3534686E-17
   115.3505        1.3539822E-17
   115.5120        1.3536254E-17
   115.6735        1.3524290E-17
   115.8350        1.3508662E-17
   115.9965        1.3496486E-17
   116.1580        1.3494063E-17
   116.3195        1.3503945E-17
   116.4810        1.3523657E-17
   116.6425        1.3546627E-17
   116.8040        1.3564975E-17
   116.9655        1.3572886E-17
   117.1270        1.3569100E-17
   117.2885        1.3557356E-17
   117.4500        1.3544637E-17
   117.6115        1.3537955E-17
   117.7730        1.3541171E-17
   117.9345        1.3553239E-17
   118.0960        1.3568707E-17
   118.2575        1.3580216E-17
   118.4190        1.3581912E-17
   118.5805        1.3572217E-17
   118.7420        1.3554714E-17