  -27.90000       -3.1498874E-18
  -27.73850       -3.1555664E-18
  -27.57700       -3.1649682E-18
  -27.41550       -3.1750933E-18
  -27.25400       -3.1830919E-18
  -27.09250       -3.1873802E-18
  -26.93100       -3.1882184E-18
  -26.76950       -3.1875163E-18
  -26.60800       -3.1879557E-18
  -26.44650       -3.1917986E-18
  -26.28500       -3.1998831E-18
  -26.12350       -3.2112272E-18
  -25.96200       -3.2234077E-18
  -25.80050       -3.2335493E-18
  -25.63900       -3.2395178E-18
  -25.47750       -3.2408047E-18
  -25.31600       -3.2387432E-18
  -25.15450       -3.2359624E-18
  -24.99300       -3.2353083E-18
  -24.83150       -3.2386799E-18
  -24.67000       -3.2462680E-18
  -24.50850       -3.2565009E-18
  -24.34700       -3.2667232E-18
  -24.18550       -3.2743107E-18
  -24.02400       -3.2777549E-18
  -23.86250       -3.2772710E-18
  -23.70100       -3.2746840E-18
  -23.53950       -3.2726466E-18
  -23.37800       -3.2735257E-18
  -23.21650       -3.2784214E-18
  -23.05500       -3.2867285E-18
  -22.89350       -3.2964121E-18
  -22.73200       -3.3048672E-18
  -22.57050       -3.3100116E-18
  -22.40900       -3.3111411E-18
  -22.24750       -3.3092012E-18
  -22.08600       -3.3063687E-18
  -21.92450       -3.3051294E-18
  -21.76300       -3.3072337E-18
  -21.60150       -3.3129783E-18
  -21.44000       -3.3210962E-18
  -21.27850       -3.3293048E-18
  -21.11700       -3.3352696E-18
  -20.95550       -3.3375782E-18
  -20.79400       -3.3363170E-18
  -20.63250       -3.3330180E-18
  -20.47100       -3.3300029E-18
  -20.30950       -3.3294135E-18
  -20.14800       -3.3323372E-18
  -19.98650       -3.3383872E-18
  -19.82500       -3.3459088E-18
  -19.66350       -3.3527041E-18
  -19.50200       -3.3569630E-18
  -19.34050       -3.3580028E-18
  -19.17900       -3.3565116E-18
  -19.01750       -3.3542062E-18
  -18.85600       -3.3530659E-18
  -18.69450       -3.3544777E-18
  -18.53300       -3.3586581E-18
  -18.37150       -3.3645890E-18
  -18.21000       -3.3704715E-18
  -18.04850       -3.3745058E-18
  -17.88700       -3.3756529E-18
  -17.72550       -3.3740596E-18
  -17.56400       -3.3709781E-18
  -17.40250       -3.3682292E-18
  -17.24100       -3.3674423E-18
  -17.07950       -3.3693984E-18
  -16.91800       -3.3737411E-18
  -16.75650       -3.3791728E-18
  -16.59500       -3.3840273E-18
  -16.43350       -3.3869783E-18
  -16.27200       -3.3875703E-18
  -16.11050       -3.3863674E-18
  -15.94900       -3.3846626E-18
  -15.78750       -3.3838867E-18
  -15.62600       -3.3849825E-18
  -15.46450       -3.3880071E-18
  -15.30300       -3.3921389E-18
  -15.14150       -3.3960661E-18
  -14.98000       -3.3985884E-18
  -14.81850       -3.3991562E-18
  -14.65700       -3.3981142E-18
  -14.49550       -3.3965492E-18
  -14.33400       -3.3958165E-18
  -14.17250       -3.3969487E-18
  -14.01100       -3.4002159E-18
  -13.84950       -3.4050216E-18
  -13.68800       -3.4101726E-18
  -13.52650       -3.4143968E-18
  -13.36500       -3.4168755E-18
  -13.20350       -3.4175561E-18
  -13.04200       -3.4171129E-18
  -12.88050       -3.4165876E-18
  -12.71900       -3.4168800E-18
  -12.55750       -3.4183307E-18
  -12.39600       -3.4205744E-18
  -12.23450       -3.4227340E-18
  -12.07300       -3.4238511E-18
  -11.91150       -3.4233647E-18
  -11.75000       -3.4214089E-18
  -11.58850       -3.4188041E-18
  -11.42700       -3.4167355E-18
  -11.26550       -3.4162679E-18
  -11.10400       -3.4179076E-18
  -10.94250       -3.4214111E-18
  -10.78100       -3.4259149E-18
  -10.61950       -3.4303285E-18
  -10.45800       -3.4338182E-18
  -10.29650       -3.4361622E-18
  -10.13500       -3.4378224E-18
  -9.973500       -3.4397059E-18
  -9.812000       -3.4427160E-18
  -9.650500       -3.4472963E-18
  -9.489000       -3.4531742E-18
  -9.327500       -3.4594199E-18
  -9.166000       -3.4648104E-18
  -9.004500       -3.4683414E-18
  -8.843000       -3.4696608E-18
  -8.681500       -3.4692315E-18
  -8.520000       -3.4681388E-18
  -8.358500       -3.4676185E-18
  -8.197000       -3.4685054E-18
  -8.035500       -3.4708470E-18
  -7.874000       -3.4738587E-18
  -7.712500       -3.4762600E-18
  -7.551000       -3.4768502E-18
  -7.389500       -3.4750825E-18
  -7.228000       -3.4713747E-18
  -7.066500       -3.4670068E-18
  -6.905000       -3.4636329E-18
  -6.743500       -3.4626159E-18
  -6.582000       -3.4644644E-18
  -6.420500       -3.4686268E-18
  -6.259000       -3.4737404E-18
  -6.097500       -3.4782300E-18
  -5.936000       -3.4810018E-18
  -5.774500       -3.4819266E-18
  -5.613000       -3.4818952E-18
  -5.451500       -3.4824151E-18
  -5.290000       -3.4849194E-18
  -5.128500       -3.4900777E-18
  -4.967000       -3.4974296E-18
  -4.805500       -3.5054922E-18
  -4.644000       -3.5123160E-18
  -4.482500       -3.5162600E-18
  -4.321000       -3.5166587E-18
  -4.159500       -3.5141106E-18
  -3.998000       -3.5102485E-18
  -3.836500       -3.5070940E-18
  -3.675000       -3.5062474E-18
  -3.513500       -3.5082525E-18
  -3.352000       -3.5123962E-18
  -3.190500       -3.5170400E-18
  -3.029000       -3.5203380E-18
  -2.867500       -3.5210597E-18
  -2.706000       -3.5191526E-18
  -2.544500       -3.5158191E-18
  -2.383000       -3.5130361E-18
  -2.221500       -3.5127284E-18
  -2.060000       -3.5159192E-18
  -1.898500       -3.5222360E-18
  -1.737000       -3.5299875E-18
  -1.575500       -3.5368101E-18
  -1.414000       -3.5406254E-18
  -1.252500       -3.5405142E-18
  -1.091000       -3.5371302E-18
 -0.9295000       -3.5324570E-18
 -0.7680000       -3.5290064E-18
 -0.6065000       -3.5287744E-18
 -0.4450000       -3.5324144E-18
 -0.2835000       -3.5389661E-18
 -0.1220000       -3.5462722E-18
  3.9500002E-02   -3.5519016E-18
  0.2010000       -3.5541912E-18
  0.3625000       -3.5529566E-18
  0.5240000       -3.5495751E-18
  0.6855000       -3.5463905E-18
  0.8470000       -3.5457072E-18
   1.008500       -3.5487880E-18
   1.170000       -3.5552951E-18
   1.331500       -3.5633998E-18
   1.493000       -3.5705251E-18
   1.654500       -3.5744046E-18
   1.816000       -3.5740233E-18
   1.977500       -3.5700487E-18
   2.139000       -3.5645773E-18
   2.300500       -3.5602900E-18
   2.462000       -3.5593648E-18
   2.623500       -3.5625908E-18
   2.785000       -3.5690432E-18
   2.946500       -3.5764676E-18
   3.108000       -3.5822202E-18
   3.269500       -3.5843763E-18
   3.431000       -3.5825523E-18
   3.592500       -3.5780884E-18
   3.754000       -3.5735021E-18
   3.915500       -3.5714338E-18
   4.077000       -3.5735170E-18
   4.238500       -3.5796580E-18
   4.400000       -3.5880332E-18
   4.561500       -3.5958418E-18
   4.723000       -3.6004765E-18
   4.884500       -3.6006436E-18
   5.046000       -3.5969200E-18
   5.207500       -3.5915202E-18
   5.369000       -3.5873512E-18
   5.530500       -3.5867726E-18
   5.692000       -3.5905929E-18
   5.853500       -3.5977290E-18
   6.015000       -3.6056803E-18
   6.176500       -3.6116012E-18
   6.338000       -3.6135137E-18
   6.499500       -3.6111430E-18
   6.661000       -3.6060190E-18
   6.822500       -3.6008243E-18
   6.984000       -3.5982654E-18
   7.145500       -3.5999508E-18
   7.307000       -3.6057498E-18
   7.468500       -3.6138756E-18
   7.630000       -3.6216519E-18
   7.791500       -3.6266274E-18
   7.953000       -3.6275791E-18
   8.114500       -3.6249941E-18
   8.276000       -3.6208413E-18
   8.437500       -3.6177245E-18
   8.599000       -3.6177687E-18
   8.760500       -3.6217040E-18
   8.922000       -3.6285237E-18
   9.083500       -3.6358765E-18
   9.245000       -3.6410323E-18
   9.406500       -3.6420324E-18
   9.568000       -3.6385425E-18
   9.729500       -3.6320434E-18
   9.891000       -3.6252597E-18
   10.05250       -3.6210654E-18
   10.21400       -3.6213144E-18
   10.37550       -3.6261042E-18
   10.53700       -3.6337821E-18
   10.69850       -3.6417048E-18
   10.86000       -3.6474120E-18
   11.02150       -3.6496999E-18
   11.18300       -3.6491209E-18
   11.34450       -3.6476907E-18
   11.50600       -3.6479463E-18
   11.66750       -3.6517704E-18
   11.82900       -3.6595045E-18
   11.99050       -3.6697392E-18
   12.15200       -3.6798618E-18
   12.31350       -3.6871187E-18
   12.47500       -3.6897301E-18
   12.63650       -3.6875786E-18
   12.79800       -3.6822053E-18
   12.95950       -3.6761222E-18
   13.12100       -3.6717687E-18
   13.28250       -3.6705366E-18
   13.44400       -3.6722840E-18
   13.60550       -3.6754989E-18
   13.76700       -3.6780280E-18
   13.92850       -3.6780553E-18
   14.09000       -3.6749079E-18
   14.25150       -3.6693686E-18
   14.41300       -3.6633695E-18
   14.57450       -3.6591852E-18
   14.73600       -3.6584755E-18
   14.89750       -3.6615687E-18
   15.05900       -3.6672986E-18
   15.22050       -3.6734640E-18
   15.38200       -3.6777356E-18
   15.54350       -3.6786265E-18
   15.70500       -3.6761110E-18
   15.86650       -3.6716289E-18
   16.02800       -3.6674620E-18
   16.18950       -3.6657439E-18
   16.35100       -3.6675389E-18
   16.51250       -3.6723953E-18
   16.67400       -3.6785628E-18
   16.83550       -3.6837943E-18
   16.99700       -3.6863531E-18
   17.15850       -3.6857840E-18
   17.32000       -3.6830936E-18
   17.48150       -3.6802746E-18
   17.64300       -3.6794011E-18
   17.80450       -3.6817023E-18
   17.96600       -3.6870360E-18
   18.12750       -3.6939818E-18
   18.28900       -3.7004988E-18
   18.45050       -3.7048415E-18
   18.61200       -3.7063184E-18
   18.77350       -3.7055714E-18
   18.93500       -3.7042670E-18
   19.09650       -3.7043559E-18
   19.25800       -3.7072345E-18
   19.41950       -3.7131650E-18
   19.58100       -3.7211890E-18
   19.74250       -3.7295444E-18
   19.90400       -3.7363976E-18
   20.06550       -3.7405744E-18
   20.22700       -3.7419968E-18
   20.38850       -3.7416514E-18
   20.55000       -3.7411175E-18
   20.71150       -3.7418590E-18
   20.87300       -3.7445734E-18
   21.03450       -3.7488777E-18
   21.19600       -3.7534685E-18
   21.35750       -3.7566900E-18
   21.51900       -3.7572690E-18
   21.68050       -3.7549107E-18
   21.84200       -3.7504766E-18
   22.00350       -3.7456574E-18
   22.16500       -3.7422697E-18
   22.32650       -3.7414711E-18
   22.48800       -3.7432495E-18
   22.64950       -3.7464226E-18
   22.81100       -3.7491659E-18
   22.97250       -3.7498463E-18
   23.13400       -3.7477721E-18
   23.29550       -3.7435320E-18
   23.45700       -3.7387451E-18
   23.61850       -3.7353429E-18
   23.78000       -3.7347101E-18
   23.94150       -3.7370800E-18
   24.10300       -3.7414525E-18
   24.26450       -3.7460789E-18
   24.42600       -3.7492747E-18
   24.58750       -3.7501850E-18
   24.74900       -3.7491601E-18
   24.91050       -3.7475583E-18
   25.07200       -3.7470910E-18
   25.23350       -3.7490042E-18
   25.39500       -3.7534743E-18
   25.55650       -3.7594871E-18
   25.71800       -3.7652430E-18
   25.87950       -3.7689045E-18
   26.04100       -3.7693624E-18
   26.20250       -3.7666935E-18
   26.36400       -3.7621254E-18
   26.52550       -3.7575345E-18
   26.68700       -3.7546870E-18
   26.84850       -3.7545459E-18
   27.01000       -3.7569224E-18
   27.17150       -3.7606191E-18
   27.33300       -3.7639994E-18
   27.49450       -3.7657414E-18
   27.65600       -3.7654564E-18
   27.81750       -3.7638988E-18
   27.97900       -3.7626713E-18
   28.14050       -3.7635250E-18
   28.30200       -3.7675463E-18
   28.46350       -3.7745910E-18
   28.62500       -3.7832222E-18
   28.78650       -3.7912206E-18
   28.94800       -3.7964695E-18
   29.10950       -3.7978513E-18
   29.27100       -3.7957387E-18
   29.43250       -3.7918580E-18
   29.59400       -3.7885513E-18
   29.75550       -3.7877585E-18
   29.91700       -3.7901643E-18
   30.07850       -3.7949061E-18
   30.24000       -3.7999801E-18
   30.40150       -3.8031734E-18
   30.56300       -3.8031093E-18
   30.72450       -3.7999184E-18
   30.88600       -3.7952320E-18
   31.04750       -3.7914853E-18
   31.20900       -3.7908472E-18
   31.37050       -3.7942568E-18
   31.53200       -3.8009996E-18
   31.69350       -3.8090182E-18
   31.85500       -3.8158015E-18
   32.01650       -3.8194722E-18
   32.17800       -3.8195772E-18
   32.33950       -3.8172603E-18
   32.50100       -3.8147345E-18
   32.66250       -3.8143052E-18
   32.82400       -3.8173517E-18
   32.98550       -3.8237015E-18
   33.14700       -3.8316619E-18
   33.30850       -3.8386909E-18
   33.47000       -3.8424322E-18
   33.63150       -3.8416799E-18
   33.79300       -3.8368764E-18
   33.95450       -3.8299314E-18
   34.11600       -3.8234410E-18
   34.27750       -3.8196049E-18
   34.43900       -3.8193063E-18
   34.60050       -3.8217337E-18
   34.76200       -3.8247392E-18
   34.92350       -3.8257902E-18
   35.08500       -3.8231361E-18
   35.24650       -3.8166750E-18
   35.40800       -3.8081191E-18
   35.56950       -3.8003531E-18
   35.73100       -3.7962354E-18
   35.89250       -3.7973542E-18
   36.05400       -3.8032991E-18
   36.21550       -3.8117868E-18
   36.37700       -3.8196103E-18
   36.53850       -3.8240183E-18
   36.70000       -3.8239034E-18
   36.86150       -3.8202696E-18
   37.02300       -3.8157573E-18
   37.18450       -3.8134341E-18
   37.34600       -3.8153942E-18
   37.50750       -3.8218011E-18
   37.66900       -3.8308111E-18
   37.83050       -3.8393998E-18
   37.99200       -3.8447189E-18
   38.15350       -3.8453695E-18
   38.31500       -3.8420252E-18
   38.47650       -3.8371469E-18
   38.63800       -3.8339164E-18
   38.79950       -3.8348594E-18
   38.96100       -3.8407534E-18
   39.12250       -3.8502900E-18
   39.28400       -3.8606186E-18
   39.44550       -3.8685426E-18
   39.60700       -3.8718480E-18
   39.76850       -3.8702168E-18
   39.93000       -3.8653368E-18
   40.09150       -3.8601773E-18
   40.25300       -3.8577313E-18
   40.41450       -3.8597410E-18
   40.57600       -3.8659370E-18
   40.73750       -3.8741351E-18
   40.89900       -3.8811538E-18
   41.06050       -3.8841887E-18
   41.22200       -3.8820707E-18
   41.38350       -3.8758375E-18
   41.54500       -3.8683531E-18
   41.70650       -3.8631022E-18
   41.86800       -3.8626704E-18
   42.02950       -3.8675710E-18
   42.19100       -3.8759624E-18
   42.35250       -3.8844029E-18
   42.51400       -3.8893416E-18
   42.67550       -3.8886939E-18
   42.83700       -3.8827846E-18
   42.99850       -3.8742278E-18
   43.16000       -3.8667687E-18
   43.32150       -3.8636080E-18
   43.48300       -3.8659742E-18
   43.64450       -3.8725838E-18
   43.80600       -3.8802484E-18
   43.96750       -3.8853339E-18
   44.12900       -3.8854080E-18
   44.29050       -3.8803357E-18
   44.45200       -3.8723393E-18
   44.61350       -3.8650159E-18
   44.77500       -3.8617580E-18
   44.93650       -3.8642913E-18
   45.09800       -3.8719485E-18
   45.25950       -3.8819900E-18
   45.42100       -3.8908012E-18
   45.58250       -3.8954276E-18
   45.74400       -3.8947956E-18
   45.90550       -3.8901130E-18
   46.06700       -3.8843041E-18
   46.22850       -3.8807381E-18
   46.39000       -3.8817944E-18
   46.55150       -3.8878444E-18
   46.71300       -3.8970753E-18
   46.87450       -3.9062235E-18
   47.03600       -3.9119261E-18
   47.19750       -3.9121296E-18
   47.35900       -3.9069692E-18
   47.52050       -3.8987309E-18
   47.68200       -3.8908926E-18
   47.84350       -3.8866405E-18
   48.00500       -3.8874937E-18
   48.16650       -3.8926396E-18
   48.32800       -3.8992926E-18
   48.48950       -3.9039380E-18
   48.65100       -3.9039331E-18
   48.81250       -3.8987421E-18
   48.97400       -3.8902474E-18
   49.13550       -3.8819632E-18
   49.29700       -3.8775034E-18
   49.45850       -3.8789857E-18
   49.62000       -3.8861049E-18
   49.78150       -3.8962961E-18
   49.94300       -3.9058927E-18
   50.10450       -3.9117470E-18
   50.26600       -3.9125664E-18
   50.42750       -3.9093776E-18
   50.58900       -3.9049468E-18
   50.75050       -3.9024495E-18
   50.91200       -3.9040175E-18
   51.07350       -3.9098090E-18
   51.23500       -3.9179947E-18
   51.39650       -3.9256168E-18
   51.55800       -3.9299053E-18
   51.71950       -3.9294615E-18
   51.88100       -3.9248115E-18
   52.04250       -3.9181287E-18
   52.20400       -3.9123058E-18
   52.36550       -3.9097697E-18
   52.52700       -3.9115527E-18
   52.68850       -3.9169550E-18
   52.85000       -3.9239157E-18
   53.01150       -3.9299132E-18
   53.17300       -3.9330155E-18
   53.33450       -3.9326569E-18
   53.49600       -3.9298234E-18
   53.65750       -3.9265767E-18
   53.81900       -3.9251230E-18
   53.98050       -3.9268270E-18
   54.14200       -3.9315911E-18
   54.30350       -3.9378793E-18
   54.46500       -3.9433826E-18
   54.62650       -3.9460403E-18
   54.78800       -3.9449662E-18
   54.94950       -3.9408514E-18
   55.11100       -3.9356505E-18
   55.27250       -3.9316842E-18
   55.43400       -3.9305828E-18
   55.59550       -3.9325626E-18
   55.75700       -3.9363838E-18
   55.91850       -3.9399911E-18
   56.08000       -3.9415235E-18
   56.24150       -3.9401859E-18
   56.40300       -3.9365848E-18
   56.56450       -3.9323802E-18
   56.72600       -3.9294603E-18
   56.88750       -3.9290521E-18
   57.04900       -3.9311965E-18
   57.21050       -3.9348270E-18
   57.37200       -3.9383649E-18
   57.53350       -3.9405151E-18
   57.69500       -3.9408642E-18
   57.85650       -3.9400102E-18
   58.01800       -3.9391958E-18
   58.17950       -3.9396727E-18
   58.34100       -3.9421066E-18
   58.50250       -3.9462992E-18
   58.66400       -3.9513111E-18
   58.82550       -3.9558899E-18
   58.98700       -3.9589977E-18
   59.14850       -3.9602074E-18
   59.31000       -3.9598207E-18
   59.47150       -3.9586883E-18
   59.63300       -3.9578193E-18
   59.79450       -3.9579534E-18
   59.95600       -3.9592570E-18
   60.11750       -3.9612679E-18
   60.27900       -3.9631096E-18
   60.44050       -3.9638966E-18
   60.60200       -3.9631720E-18
   60.76350       -3.9611868E-18
   60.92500       -3.9588831E-18
   61.08650       -3.9575422E-18
   61.24800       -3.9582201E-18
   61.40950       -3.9612038E-18
   61.57100       -3.9657756E-18
   61.73250       -3.9704248E-18
   61.89400       -3.9734696E-18
   62.05550       -3.9738154E-18
   62.21700       -3.9714902E-18
   62.37850       -3.9676777E-18
   62.54000       -3.9642015E-18
   62.70150       -3.9626861E-18
   62.86300       -3.9637883E-18
   63.02450       -3.9668757E-18
   63.18600       -3.9703205E-18
   63.34750       -3.9722851E-18
   63.50900       -3.9716221E-18
   63.67050       -3.9684590E-18
   63.83200       -3.9641758E-18
   63.99350       -3.9607943E-18
   64.15500       -3.9600643E-18
   64.31650       -3.9626811E-18
   64.47800       -3.9679813E-18
   64.63950       -3.9742339E-18
   64.80100       -3.9793666E-18
   64.96250       -3.9818088E-18
   65.12400       -3.9810970E-18
   65.28550       -3.9780199E-18
   65.44700       -3.9742687E-18
   65.60850       -3.9717586E-18
   65.77000       -3.9718835E-18
   65.93150       -3.9749875E-18
   66.09300       -3.9802326E-18
   66.25450       -3.9859162E-18
   66.41600       -3.9901162E-18
   66.57750       -3.9914413E-18
   66.73900       -3.9896170E-18
   66.90050       -3.9856527E-18
   67.06200       -3.9814966E-18
   67.22350       -3.9792595E-18
   67.38500       -3.9802947E-18
   67.54650       -3.9845220E-18
   67.70800       -3.9903296E-18
   67.86950       -3.9951649E-18
   68.03100       -3.9966092E-18
   68.19250       -3.9934795E-18
   68.35400       -3.9864609E-18
   68.51550       -3.9779447E-18
   68.67700       -3.9710939E-18
   68.83850       -3.9685355E-18
   69.00000       -3.9712288E-18
   69.16150       -3.9780427E-18
   69.32300       -3.9862293E-18
   69.48450       -3.9926077E-18
   69.64600       -3.9949300E-18
   69.80750       -3.9928310E-18
   69.96900       -3.9879494E-18
   70.13050       -3.9831861E-18
   70.29200       -3.9814312E-18
   70.45350       -3.9843264E-18
   70.61500       -3.9915638E-18
   70.77650       -4.0010093E-18
   70.93800       -4.0095740E-18
   71.09950       -4.0144754E-18
   71.26100       -4.0143906E-18
   71.42250       -4.0100302E-18
   71.58400       -4.0039065E-18
   71.74550       -3.9993616E-18
   71.90700       -3.9992202E-18
   72.06850       -4.0045956E-18
   72.23000       -4.0143427E-18
   72.39150       -4.0254108E-18
   72.55300       -4.0340105E-18
   72.71450       -4.0371584E-18
   72.87600       -4.0339717E-18
   73.03750       -4.0261403E-18
   73.19900       -4.0173094E-18
   73.36050       -4.0115683E-18
   73.52200       -4.0116605E-18
   73.68350       -4.0177122E-18
   73.84500       -4.0270775E-18
   74.00650       -4.0354469E-18
   74.16800       -4.0387478E-18
   74.32950       -4.0350131E-18
   74.49100       -4.0253491E-18
   74.65250       -4.0135420E-18
   74.81400       -4.0044322E-18
   74.97550       -4.0017745E-18
   75.13700       -4.0065399E-18
   75.29850       -4.0164309E-18
   75.46000       -4.0268529E-18
   75.62150       -4.0329149E-18
   75.78300       -4.0315679E-18
   75.94450       -4.0229404E-18
   76.10600       -4.0102787E-18
   76.26750       -3.9985452E-18
   76.42900       -3.9922888E-18
   76.59050       -3.9937273E-18
   76.75200       -4.0018386E-18
   76.91350       -4.0128484E-18
   77.07500       -4.0218795E-18
   77.23650       -4.0250638E-18
   77.39800       -4.0212182E-18
   77.55950       -4.0123723E-18
   77.72100       -4.0029176E-18
   77.88250       -3.9977184E-18
   78.04400       -3.9999903E-18
   78.20550       -4.0098345E-18
   78.36700       -4.0240819E-18
   78.52850       -4.0375455E-18
   78.69000       -4.0451882E-18
   78.85150       -4.0442961E-18
   79.01300       -4.0357212E-18
   79.17450       -4.0236034E-18
   79.33600       -4.0136454E-18
   79.49750       -4.0106398E-18
   79.65900       -4.0163395E-18
   79.82050       -4.0286326E-18
   79.98200       -4.0424374E-18
   80.14350       -4.0519558E-18
   80.30500       -4.0532859E-18
   80.46650       -4.0462206E-18
   80.62800       -4.0343886E-18
   80.78950       -4.0236563E-18
   80.95100       -4.0194877E-18
   81.11250       -4.0244578E-18
   81.27400       -4.0370533E-18
   81.43550       -4.0523152E-18
   81.59700       -4.0640409E-18
   81.75850       -4.0675478E-18
   81.92000       -4.0617443E-18
   82.08150       -4.0495843E-18
   82.24300       -4.0367146E-18
   82.40450       -4.0289507E-18
   82.56600       -4.0297208E-18
   82.72750       -4.0386039E-18
   82.88900       -4.0515861E-18
   83.05050       -4.0628953E-18
   83.21200       -4.0675734E-18
   83.37350       -4.0636608E-18
   83.53500       -4.0530444E-18
   83.69650       -4.0406061E-18
   83.85800       -4.0320712E-18
   84.01950       -4.0314963E-18
   84.18100       -4.0394894E-18
   84.34250       -4.0529364E-18
   84.50400       -4.0663516E-18
   84.66550       -4.0742628E-18
   84.82700       -4.0736064E-18
   84.98850       -4.0650906E-18
   85.15000       -4.0529100E-18
   85.31150       -4.0429172E-18
   85.47300       -4.0400337E-18
   85.63450       -4.0460377E-18
   85.79600       -4.0587292E-18
   85.95750       -4.0728707E-18
   86.11900       -4.0825143E-18
   86.28050       -4.0836724E-18
   86.44200       -4.0761207E-18
   86.60350       -4.0634995E-18
   86.76500       -4.0516510E-18
   86.92650       -4.0459439E-18
   87.08800       -4.0488158E-18
   87.24950       -4.0586713E-18
   87.41100       -4.0706447E-18
   87.57250       -4.0788917E-18
   87.73400       -4.0793235E-18
   87.89550       -4.0715265E-18
   88.05700       -4.0589604E-18
   88.21850       -4.0473592E-18
   88.38000       -4.0420892E-18
   88.54150       -4.0457027E-18
   88.70300       -4.0567956E-18
   88.86450       -4.0706857E-18
   89.02600       -4.0815519E-18
   89.18750       -4.0850501E-18
   89.34900       -4.0802061E-18
   89.51050       -4.0697576E-18
   89.67200       -4.0588169E-18
   89.83350       -4.0524980E-18
   89.99500       -4.0535837E-18
   90.15650       -4.0612926E-18
   90.31800       -4.0716700E-18
   90.47950       -4.0794285E-18
   90.64100       -4.0803864E-18
   90.80250       -4.0734183E-18
   90.96400       -4.0610490E-18
   91.12550       -4.0484014E-18
   91.28700       -4.0409688E-18
   91.44850       -4.0421686E-18
   91.61000       -4.0517833E-18
   91.77150       -4.0660009E-18
   91.93300       -4.0790849E-18
   92.09450       -4.0859484E-18
   92.25600       -4.0844760E-18
   92.41750       -4.0765140E-18
   92.57900       -4.0670378E-18
   92.74050       -4.0618419E-18
   92.90200       -4.0647895E-18
   93.06350       -4.0759192E-18
   93.22500       -4.0913106E-18
   93.38650       -4.1048321E-18
   93.54800       -4.1109830E-18
   93.70950       -4.1075142E-18
   93.87100       -4.0965715E-18
   94.03250       -4.0837832E-18
   94.19400       -4.0756781E-18
   94.35550       -4.0766277E-18
   94.51700       -4.0867578E-18
   94.67850       -4.1018265E-18
   94.84000       -4.1151503E-18
   95.00150       -4.1206755E-18
   95.16300       -4.1157790E-18
   95.32450       -4.1024937E-18
   95.48600       -4.0865899E-18
   95.64750       -4.0749473E-18
   95.80900       -4.0724223E-18
   95.97050       -4.0796502E-18
   96.13200       -4.0927797E-18
   96.29350       -4.1052519E-18
   96.45500       -4.1108122E-18
   96.61650       -4.1063802E-18
   96.77800       -4.0934852E-18
   96.93950       -4.0776269E-18
   97.10100       -4.0658450E-18
   97.26250       -4.0635851E-18
   97.42400       -4.0722445E-18
   97.58550       -4.0884936E-18
   97.74700       -4.1056878E-18
   97.90850       -4.1167704E-18
   98.07000       -4.1173999E-18
   98.23150       -4.1079175E-18
   98.39300       -4.0932441E-18
   98.55450       -4.0807247E-18
   98.71600       -4.0768403E-18
   98.87750       -4.0842560E-18
   99.03900       -4.1005411E-18
   99.20050       -4.1191795E-18
   99.36200       -4.1324488E-18
   99.52350       -4.1349059E-18
   99.68500       -4.1258938E-18
   99.84650       -4.1099068E-18
   100.0080       -4.0946023E-18
   100.1695       -4.0873261E-18
   100.3310       -4.0917320E-18
   100.4925       -4.1060485E-18
   100.6540       -4.1238299E-18
   100.8155       -4.1368609E-18
   100.9770       -4.1389020E-18
   101.1385       -4.1285569E-18
   101.3000       -4.1099561E-18
   101.4615       -4.0909371E-18
   101.6230       -4.0795472E-18
   101.7845       -4.0804658E-18
   101.9460       -4.0929492E-18
   102.1075       -4.1112204E-18
   102.2690       -4.1271048E-18
   102.4305       -4.1337065E-18
   102.5920       -4.1284634E-18
   102.7535       -4.1142218E-18
   102.9150       -4.0978813E-18
   103.0765       -4.0872429E-18
   103.2380       -4.0874940E-18
   103.3995       -4.0988871E-18
   103.5610       -4.1166314E-18
   103.7225       -4.1330253E-18
   103.8840       -4.1408757E-18
   104.0455       -4.1367005E-18
   104.2070       -4.1222997E-18
   104.3685       -4.1040004E-18
   104.5300       -4.0899060E-18
   104.6915       -4.0863483E-18
   104.8530       -4.0951144E-18
   105.0145       -4.1126684E-18
   105.1760       -4.1317175E-18
   105.3375       -4.1444429E-18
   105.4990       -4.1459550E-18
   105.6605       -4.1364432E-18
   105.8220       -4.1210535E-18
   105.9835       -4.1075386E-18
   106.1450       -4.1027269E-18
   106.3065       -4.1093977E-18
   106.4680       -4.1249859E-18
   106.6295       -4.1427116E-18
   106.7910       -4.1546313E-18
   106.9525       -4.1552297E-18
   107.1140       -4.1439201E-18
   107.2755       -4.1253234E-18
   107.4370       -4.1072106E-18
   107.5985       -4.0970545E-18
   107.7600       -4.0987540E-18
   107.9215       -4.1109884E-18
   108.0830       -4.1279195E-18
   108.2445       -4.1418807E-18
   108.4060       -4.1468181E-18
   108.5675       -4.1409394E-18
   108.7290       -4.1274083E-18
   108.8905       -4.1128264E-18
   109.0520       -4.1042324E-18
   109.2135       -4.1059823E-18
   109.3750       -4.1178829E-18
   109.5365       -4.1353592E-18
   109.6980       -4.1515198E-18
   109.8595       -4.1601800E-18
   110.0210       -4.1585132E-18
   110.1825       -4.1481933E-18
   110.3440       -4.1345725E-18
   110.5055       -4.1242870E-18
   110.6670       -4.1223514E-18
   110.8285       -4.1299995E-18
   110.9900       -4.1441976E-18
   111.1515       -4.1590075E-18
   111.3130       -4.1681999E-18
   111.4745       -4.1679559E-18
   111.6360       -4.1585041E-18
   111.7975       -4.1439871E-18
   111.9590       -4.1306323E-18
   112.1205       -4.1240388E-18
   112.2820       -4.1267731E-18
   112.4435       -4.1373146E-18
   112.6050       -4.1508089E-18
   112.7665       -4.1612661E-18
   112.9280       -4.1642125E-18
   113.0895       -4.1586133E-18
   113.2510       -4.1472313E-18
   113.4125       -4.1353058E-18
   113.5740       -4.1281751E-18
   113.7355       -4.1289337E-18
   113.8970       -4.1371480E-18
   114.0585       -4.1491615E-18
   114.2200       -4.1597887E-18
   114.3815       -4.1646128E-18
   114.5430       -4.1618542E-18
   114.7045       -4.1530265E-18
   114.8660       -4.1421429E-18
   115.0275       -4.1339038E-18
   115.1890       -4.1316832E-18
   115.3505       -4.1361884E-18
   115.5120       -4.1453102E-18
   115.6735       -4.1551594E-18
   115.8350       -4.1617839E-18
   115.9965       -4.1628075E-18
   116.1580       -4.1583358E-18
   116.3195       -4.1507857E-18
   116.4810       -4.1437687E-18
   116.6425       -4.1405253E-18
   116.8040       -4.1425813E-18
   116.9655       -4.1491640E-18
   117.1270       -4.1575955E-18
   117.2885       -4.1644606E-18
   117.4500       -4.1670431E-18
   117.6115       -4.1644276E-18
   117.7730       -4.1578200E-18
   117.9345       -4.1499759E-18
   118.0960       -4.1440094E-18
   118.2575       -4.1420924E-18
   118.4190       -4.1445926E-18
   118.5805       -4.1500115E-18
   118.7420       -4.1557095E-18