  -27.90000       -2.8808724E-18
  -27.73850       -2.8862348E-18
  -27.57700       -2.8949024E-18
  -27.41550       -2.9037929E-18
  -27.25400       -2.9101643E-18
  -27.09250       -2.9128036E-18
  -26.93100       -2.9125081E-18
  -26.76950       -2.9116369E-18
  -26.60800       -2.9129362E-18
  -26.44650       -2.9181935E-18
  -26.28500       -2.9273430E-18
  -26.12350       -2.9384417E-18
  -25.96200       -2.9485407E-18
  -25.80050       -2.9550399E-18
  -25.63900       -2.9568969E-18
  -25.47750       -2.9551199E-18
  -25.31600       -2.9523100E-18
  -25.15450       -2.9514646E-18
  -24.99300       -2.9546033E-18
  -24.83150       -2.9618563E-18
  -24.67000       -2.9714350E-18
  -24.50850       -2.9804910E-18
  -24.34700       -2.9864523E-18
  -24.18550       -2.9882123E-18
  -24.02400       -2.9866216E-18
  -23.86250       -2.9840617E-18
  -23.70100       -2.9833197E-18
  -23.53950       -2.9862868E-18
  -23.37800       -2.9930896E-18
  -23.21650       -3.0020457E-18
  -23.05500       -3.0104620E-18
  -22.89350       -3.0158891E-18
  -22.73200       -3.0172602E-18
  -22.57050       -3.0153784E-18
  -22.40900       -3.0125341E-18
  -22.24750       -3.0114298E-18
  -22.08600       -3.0139157E-18
  -21.92450       -3.0201206E-18
  -21.76300       -3.0283918E-18
  -21.60150       -3.0360676E-18
  -21.44000       -3.0407306E-18
  -21.27850       -3.0413446E-18
  -21.11700       -3.0387429E-18
  -20.95550       -3.0352323E-18
  -20.79400       -3.0334980E-18
  -20.63250       -3.0353401E-18
  -20.47100       -3.0408396E-18
  -20.30950       -3.0483498E-18
  -20.14800       -3.0553134E-18
  -19.98650       -3.0594967E-18
  -19.82500       -3.0600525E-18
  -19.66350       -3.0578977E-18
  -19.50200       -3.0552416E-18
  -19.34050       -3.0544970E-18
  -19.17900       -3.0571113E-18
  -19.01750       -3.0628736E-18
  -18.85600       -3.0700196E-18
  -18.69450       -3.0760707E-18
  -18.53300       -3.0790063E-18
  -18.37150       -3.0782023E-18
  -18.21000       -3.0747178E-18
  -18.04850       -3.0707926E-18
  -17.88700       -3.0688103E-18
  -17.72550       -3.0702060E-18
  -17.56400       -3.0748237E-18
  -17.40250       -3.0810151E-18
  -17.24100       -3.0864354E-18
  -17.07950       -3.0891612E-18
  -16.91800       -3.0886101E-18
  -16.75650       -3.0858275E-18
  -16.59500       -3.0829923E-18
  -16.43350       -3.0823705E-18
  -16.27200       -3.0852081E-18
  -16.11050       -3.0910912E-18
  -15.94900       -3.0980933E-18
  -15.78750       -3.1036631E-18
  -15.62600       -3.1058322E-18
  -15.46450       -3.1041795E-18
  -15.30300       -3.1000659E-18
  -15.14150       -3.0960192E-18
  -14.98000       -3.0945453E-18
  -14.81850       -3.0969448E-18
  -14.65700       -3.1027013E-18
  -14.49550       -3.1097510E-18
  -14.33400       -3.1154964E-18
  -14.17250       -3.1180697E-18
  -14.01100       -3.1172347E-18
  -13.84950       -3.1144897E-18
  -13.68800       -3.1123297E-18
  -13.52650       -3.1130148E-18
  -13.36500       -3.1174502E-18
  -13.20350       -3.1247072E-18
  -13.04200       -3.1324161E-18
  -12.88050       -3.1378482E-18
  -12.71900       -3.1391740E-18
  -12.55750       -3.1363130E-18
  -12.39600       -3.1309795E-18
  -12.23450       -3.1259035E-18
  -12.07300       -3.1235893E-18
  -11.91150       -3.1251771E-18
  -11.75000       -3.1299319E-18
  -11.58850       -3.1356010E-18
  -11.42700       -3.1394848E-18
  -11.26550       -3.1397338E-18
  -11.10400       -3.1362720E-18
  -10.94250       -3.1308954E-18
  -10.78100       -3.1264801E-18
  -10.61950       -3.1256488E-18
  -10.45800       -3.1295216E-18
  -10.29650       -3.1371474E-18
  -10.13500       -3.1459054E-18
  -9.973500       -3.1527104E-18
  -9.812000       -3.1554664E-18
  -9.650500       -3.1540680E-18
  -9.489000       -3.1504687E-18
  -9.327500       -3.1477535E-18
  -9.166000       -3.1486591E-18
  -9.004500       -3.1542378E-18
  -8.843000       -3.1633208E-18
  -8.681500       -3.1730435E-18
  -8.520000       -3.1801856E-18
  -8.358500       -3.1826789E-18
  -8.197000       -3.1805659E-18
  -8.035500       -3.1759612E-18
  -7.874000       -3.1720389E-18
  -7.712500       -3.1715350E-18
  -7.551000       -3.1754713E-18
  -7.389500       -3.1826973E-18
  -7.228000       -3.1904542E-18
  -7.066500       -3.1956944E-18
  -6.905000       -3.1965272E-18
  -6.743500       -3.1931238E-18
  -6.582000       -3.1876555E-18
  -6.420500       -3.1833035E-18
  -6.259000       -3.1827923E-18
  -6.097500       -3.1871360E-18
  -5.936000       -3.1951607E-18
  -5.774500       -3.2040287E-18
  -5.613000       -3.2105258E-18
  -5.451500       -3.2125195E-18
  -5.290000       -3.2099244E-18
  -5.128500       -3.2047152E-18
  -4.967000       -3.1999842E-18
  -4.805500       -3.1984766E-18
  -4.644000       -3.2013017E-18
  -4.482500       -3.2074152E-18
  -4.321000       -3.2141337E-18
  -4.159500       -3.2184239E-18
  -3.998000       -3.2183629E-18
  -3.836500       -3.2140698E-18
  -3.675000       -3.2076763E-18
  -3.513500       -3.2023441E-18
  -3.352000       -3.2007985E-18
  -3.190500       -3.2040609E-18
  -3.029000       -3.2109886E-18
  -2.867500       -3.2188236E-18
  -2.706000       -3.2244946E-18
  -2.544500       -3.2260340E-18
  -2.383000       -3.2234612E-18
  -2.221500       -3.2187120E-18
  -2.060000       -3.2146813E-18
  -1.898500       -3.2138428E-18
  -1.737000       -3.2170919E-18
  -1.575500       -3.2233531E-18
  -1.414000       -3.2301204E-18
  -1.252500       -3.2346602E-18
  -1.091000       -3.2353160E-18
 -0.9295000       -3.2322910E-18
 -0.7680000       -3.2275508E-18
 -0.6065000       -3.2239013E-18
 -0.4450000       -3.2236823E-18
 -0.2835000       -3.2276985E-18
 -0.1220000       -3.2348798E-18
  3.9500002E-02   -3.2428125E-18
  0.2010000       -3.2488776E-18
  0.3625000       -3.2514605E-18
  0.5240000       -3.2506684E-18
  0.6855000       -3.2482320E-18
  0.8470000       -3.2466428E-18
   1.008500       -3.2479491E-18
   1.170000       -3.2527788E-18
   1.331500       -3.2600553E-18
   1.493000       -3.2675276E-18
   1.654500       -3.2728522E-18
   1.816000       -3.2747038E-18
   1.977500       -3.2733892E-18
   2.139000       -3.2706835E-18
   2.300500       -3.2689779E-18
   2.462000       -3.2701477E-18
   2.623500       -3.2746662E-18
   2.785000       -3.2813939E-18
   2.946500       -3.2881292E-18
   3.108000       -3.2926578E-18
   3.269500       -3.2937976E-18
   3.431000       -3.2919350E-18
   3.592500       -3.2888126E-18
   3.754000       -3.2866675E-18
   3.915500       -3.2871612E-18
   4.077000       -3.2905946E-18
   4.238500       -3.2957845E-18
   4.400000       -3.3006477E-18
   4.561500       -3.3032027E-18
   4.723000       -3.3025182E-18
   4.884500       -3.2991499E-18
   5.046000       -3.2948674E-18
   5.207500       -3.2918027E-18
   5.369000       -3.2914319E-18
   5.530500       -3.2938866E-18
   5.692000       -3.2979124E-18
   5.853500       -3.3014877E-18
   6.015000       -3.3027980E-18
   6.176500       -3.3011078E-18
   6.338000       -3.2971206E-18
   6.499500       -3.2926708E-18
   6.661000       -3.2898859E-18
   6.822500       -3.2902108E-18
   6.984000       -3.2937437E-18
   7.145500       -3.2991956E-18
   7.307000       -3.3044945E-18
   7.468500       -3.3077540E-18
   7.630000       -3.3081459E-18
   7.791500       -3.3062717E-18
   7.953000       -3.3038576E-18
   8.114500       -3.3029171E-18
   8.276000       -3.3047652E-18
   8.437500       -3.3093476E-18
   8.599000       -3.3152069E-18
   8.760500       -3.3201204E-18
   8.922000       -3.3221292E-18
   9.083500       -3.3204757E-18
   9.245000       -3.3160070E-18
   9.406500       -3.3108264E-18
   9.568000       -3.3073557E-18
   9.729500       -3.3072435E-18
   9.891000       -3.3106343E-18
   10.05250       -3.3161474E-18
   10.21400       -3.3215675E-18
   10.37550       -3.3249217E-18
   10.53700       -3.3254392E-18
   10.69850       -3.3239355E-18
   10.86000       -3.3224441E-18
   11.02150       -3.3232494E-18
   11.18300       -3.3277921E-18
   11.34450       -3.3359439E-18
   11.50600       -3.3460105E-18
   11.66750       -3.3554548E-18
   11.82900       -3.3620109E-18
   11.99050       -3.3646777E-18
   12.15200       -3.3641429E-18
   12.31350       -3.3624443E-18
   12.47500       -3.3620253E-18
   12.63650       -3.3645888E-18
   12.79800       -3.3702806E-18
   12.95950       -3.3775734E-18
   13.12100       -3.3839345E-18
   13.28250       -3.3869855E-18
   13.44400       -3.3856296E-18
   13.60550       -3.3806073E-18
   13.76700       -3.3742052E-18
   13.92850       -3.3692346E-18
   14.09000       -3.3677424E-18
   14.25150       -3.3700504E-18
   14.41300       -3.3745966E-18
   14.57450       -3.3786657E-18
   14.73600       -3.3796941E-18
   14.89750       -3.3765310E-18
   15.05900       -3.3700513E-18
   15.22050       -3.3628004E-18
   15.38200       -3.3578276E-18
   15.54350       -3.3572604E-18
   15.70500       -3.3613076E-18
   15.86650       -3.3681655E-18
   16.02800       -3.3748669E-18
   16.18950       -3.3786651E-18
   16.35100       -3.3783026E-18
   16.51250       -3.3745745E-18
   16.67400       -3.3699340E-18
   16.83550       -3.3673208E-18
   16.99700       -3.3687673E-18
   17.15850       -3.3744277E-18
   17.32000       -3.3824857E-18
   17.48150       -3.3899793E-18
   17.64300       -3.3941683E-18
   17.80450       -3.3938005E-18
   17.96600       -3.3897057E-18
   18.12750       -3.3844357E-18
   18.28900       -3.3811123E-18
   18.45050       -3.3819956E-18
   18.61200       -3.3874223E-18
   18.77350       -3.3956167E-18
   18.93500       -3.4034869E-18
   19.09650       -3.4080648E-18
   19.25800       -3.4079188E-18
   19.41950       -3.4038689E-18
   19.58100       -3.3986333E-18
   19.74250       -3.3955584E-18
   19.90400       -3.3970273E-18
   20.06550       -3.4033015E-18
   20.22700       -3.4123682E-18
   20.38850       -3.4208747E-18
   20.55000       -3.4257209E-18
   20.71150       -3.4255534E-18
   20.87300       -3.4214328E-18
   21.03450       -3.4163347E-18
   21.19600       -3.4137101E-18
   21.35750       -3.4158004E-18
   21.51900       -3.4225291E-18
   21.68050       -3.4315096E-18
   21.84200       -3.4391709E-18
   22.00350       -3.4424422E-18
   22.16500       -3.4401972E-18
   22.32650       -3.4337758E-18
   22.48800       -3.4263448E-18
   22.64950       -3.4214062E-18
   22.81100       -3.4211638E-18
   22.97250       -3.4255135E-18
   23.13400       -3.4321359E-18
   23.29550       -3.4376476E-18
   23.45700       -3.4392582E-18
   23.61850       -3.4361403E-18
   23.78000       -3.4298628E-18
   23.94150       -3.4236799E-18
   24.10300       -3.4210155E-18
   24.26450       -3.4238466E-18
   24.42600       -3.4317395E-18
   24.58750       -3.4420050E-18
   24.74900       -3.4509096E-18
   24.91050       -3.4554023E-18
   25.07200       -3.4545420E-18
   25.23350       -3.4499356E-18
   25.39500       -3.4449521E-18
   25.55650       -3.4430752E-18
   25.71800       -3.4461844E-18
   25.87950       -3.4535996E-18
   26.04100       -3.4623686E-18
   26.20250       -3.4686653E-18
   26.36400       -3.4696343E-18
   26.52550       -3.4647941E-18
   26.68700       -3.4563043E-18
   26.84850       -3.4479566E-18
   27.01000       -3.4433554E-18
   27.17150       -3.4441774E-18
   27.33300       -3.4493698E-18
   27.49450       -3.4556947E-18
   27.65600       -3.4593510E-18
   27.81750       -3.4578776E-18
   27.97900       -3.4513993E-18
   28.14050       -3.4426085E-18
   28.30200       -3.4355052E-18
   28.46350       -3.4335004E-18
   28.62500       -3.4378015E-18
   28.78650       -3.4468438E-18
   28.94800       -3.4570459E-18
   29.10950       -3.4645347E-18
   29.27100       -3.4670012E-18
   29.43250       -3.4648003E-18
   29.59400       -3.4607539E-18
   29.75550       -3.4587515E-18
   29.91700       -3.4618203E-18
   30.07850       -3.4705988E-18
   30.24000       -3.4829449E-18
   30.40150       -3.4948852E-18
   30.56300       -3.5024626E-18
   30.72450       -3.5036116E-18
   30.88600       -3.4991688E-18
   31.04750       -3.4924947E-18
   31.20900       -3.4878654E-18
   31.37050       -3.4883815E-18
   31.53200       -3.4944307E-18
   31.69350       -3.5034726E-18
   31.85500       -3.5112766E-18
   32.01650       -3.5140258E-18
   32.17800       -3.5102402E-18
   32.33950       -3.5015697E-18
   32.50100       -3.4920472E-18
   32.66250       -3.4861444E-18
   32.82400       -3.4865853E-18
   32.98550       -3.4929831E-18
   33.14700       -3.5020097E-18
   33.30850       -3.5090242E-18
   33.47000       -3.5103692E-18
   33.63150       -3.5051981E-18
   33.79300       -3.4959089E-18
   33.95450       -3.4869948E-18
   34.11600       -3.4828584E-18
   34.27750       -3.4856895E-18
   34.43900       -3.4944171E-18
   34.60050       -3.5052341E-18
   34.76200       -3.5134315E-18
   34.92350       -3.5156628E-18
   35.08500       -3.5115455E-18
   35.24650       -3.5038453E-18
   35.40800       -3.4971352E-18
   35.56950       -3.4955826E-18
   35.73100       -3.5009158E-18
   35.89250       -3.5115496E-18
   36.05400       -3.5232981E-18
   36.21550       -3.5313308E-18
   36.37700       -3.5324616E-18
   36.53850       -3.5266800E-18
   36.70000       -3.5172013E-18
   36.86150       -3.5089758E-18
   37.02300       -3.5063376E-18
   37.18450       -3.5109023E-18
   37.34600       -3.5207429E-18
   37.50750       -3.5312779E-18
   37.66900       -3.5374821E-18
   37.83050       -3.5363646E-18
   37.99200       -3.5284841E-18
   38.15350       -3.5177473E-18
   38.31500       -3.5095598E-18
   38.47650       -3.5082074E-18
   38.63800       -3.5147504E-18
   38.79950       -3.5264608E-18
   38.96100       -3.5381104E-18
   39.12250       -3.5444999E-18
   39.28400       -3.5429970E-18
   39.44550       -3.5348405E-18
   39.60700       -3.5245430E-18
   39.76850       -3.5176848E-18
   39.93000       -3.5181956E-18
   40.09150       -3.5264480E-18
   40.25300       -3.5390972E-18
   40.41450       -3.5507208E-18
   40.57600       -3.5564366E-18
   40.73750       -3.5542359E-18
   40.89900       -3.5459202E-18
   41.06050       -3.5361996E-18
   41.22200       -3.5304044E-18
   41.38350       -3.5319119E-18
   41.54500       -3.5405320E-18
   41.70650       -3.5526171E-18
   41.86800       -3.5628381E-18
   42.02950       -3.5667552E-18
   42.19100       -3.5629531E-18
   42.35250       -3.5537209E-18
   42.51400       -3.5439677E-18
   42.67550       -3.5388917E-18
   42.83700       -3.5415039E-18
   42.99850       -3.5511728E-18
   43.16000       -3.5638957E-18
   43.32150       -3.5741841E-18
   43.48300       -3.5776811E-18
   43.64450       -3.5732490E-18
   43.80600       -3.5635164E-18
   43.96750       -3.5535969E-18
   44.12900       -3.5486007E-18
   44.29050       -3.5511521E-18
   44.45200       -3.5601080E-18
   44.61350       -3.5711157E-18
   44.77500       -3.5787341E-18
   44.93650       -3.5791104E-18
   45.09800       -3.5718912E-18
   45.25950       -3.5604348E-18
   45.42100       -3.5501926E-18
   45.58250       -3.5460567E-18
   45.74400       -3.5499722E-18
   45.90550       -3.5600059E-18
   46.06700       -3.5713204E-18
   46.22850       -3.5785682E-18
   46.39000       -3.5785037E-18
   46.55150       -3.5715483E-18
   46.71300       -3.5615556E-18
   46.87450       -3.5539149E-18
   47.03600       -3.5529165E-18
   47.19750       -3.5596696E-18
   47.35900       -3.5715752E-18
   47.52050       -3.5836041E-18
   47.68200       -3.5907522E-18
   47.84350       -3.5904713E-18
   48.00500       -3.5838866E-18
   48.16650       -3.5752235E-18
   48.32800       -3.5697327E-18
   48.48950       -3.5711256E-18
   48.65100       -3.5797536E-18
   48.81250       -3.5923987E-18
   48.97400       -3.6037898E-18
   49.13550       -3.6091238E-18
   49.29700       -3.6063884E-18
   49.45850       -3.5973568E-18
   49.62000       -3.5867337E-18
   49.78150       -3.5798627E-18
   49.94300       -3.5801006E-18
   50.10450       -3.5871626E-18
   50.26600       -3.5972724E-18
   50.42750       -3.6050438E-18
   50.58900       -3.6061762E-18
   50.75050       -3.5996324E-18
   50.91200       -3.5882044E-18
   51.07350       -3.5771860E-18
   51.23500       -3.5717725E-18
   51.39650       -3.5744976E-18
   51.55800       -3.5839784E-18
   51.71950       -3.5956131E-18
   51.88100       -3.6038816E-18
   52.04250       -3.6050860E-18
   52.20400       -3.5991613E-18
   52.36550       -3.5896677E-18
   52.52700       -3.5819973E-18
   52.68850       -3.5807114E-18
   52.85000       -3.5873144E-18
   53.01150       -3.5995393E-18
   53.17300       -3.6124636E-18
   53.33450       -3.6208926E-18
   53.49600       -3.6218554E-18
   53.65750       -3.6159952E-18
   53.81900       -3.6072093E-18
   53.98050       -3.6007317E-18
   54.14200       -3.6005857E-18
   54.30350       -3.6076436E-18
   54.46500       -3.6192014E-18
   54.62650       -3.6302645E-18
   54.78800       -3.6359332E-18
   54.94950       -3.6337660E-18
   55.11100       -3.6250061E-18
   55.27250       -3.6140505E-18
   55.43400       -3.6063859E-18
   55.59550       -3.6059429E-18
   55.75700       -3.6131539E-18
   55.91850       -3.6246781E-18
   56.08000       -3.6349852E-18
   56.24150       -3.6390459E-18
   56.40300       -3.6348305E-18
   56.56450       -3.6243642E-18
   56.72600       -3.6127936E-18
   56.88750       -3.6058858E-18
   57.04900       -3.6071820E-18
   57.21050       -3.6162049E-18
   57.37200       -3.6286598E-18
   57.53350       -3.6385400E-18
   57.69500       -3.6411233E-18
   57.85650       -3.6353380E-18
   58.01800       -3.6243150E-18
   58.17950       -3.6138359E-18
   58.34100       -3.6094651E-18
   58.50250       -3.6138053E-18
   58.66400       -3.6252295E-18
   58.82550       -3.6386865E-18
   58.98700       -3.6481763E-18
   59.14850       -3.6496573E-18
   59.31000       -3.6429708E-18
   59.47150       -3.6318746E-18
   59.63300       -3.6221796E-18
   59.79450       -3.6189226E-18
   59.95600       -3.6239407E-18
   60.11750       -3.6350175E-18
   60.27900       -3.6469789E-18
   60.44050       -3.6541936E-18
   60.60200       -3.6532717E-18
   60.76350       -3.6446959E-18
   60.92500       -3.6326087E-18
   61.08650       -3.6228683E-18
   61.24800       -3.6202618E-18
   61.40950       -3.6262097E-18
   61.57100       -3.6380541E-18
   61.73250       -3.6503121E-18
   61.89400       -3.6573146E-18
   62.05550       -3.6559758E-18
   62.21700       -3.6473321E-18
   62.37850       -3.6360767E-18
   62.54000       -3.6282913E-18
   62.70150       -3.6284637E-18
   62.86300       -3.6372563E-18
   63.02450       -3.6511376E-18
   63.18600       -3.6640859E-18
   63.34750       -3.6705337E-18
   63.50900       -3.6681010E-18
   63.67050       -3.6587427E-18
   63.83200       -3.6477279E-18
   63.99350       -3.6409724E-18
   64.15500       -3.6420762E-18
   64.31650       -3.6505602E-18
   64.47800       -3.6621585E-18
   64.63950       -3.6709899E-18
   64.80100       -3.6724892E-18
   64.96250       -3.6656459E-18
   65.12400       -3.6534624E-18
   65.28550       -3.6414575E-18
   65.44700       -3.6349761E-18
   65.60850       -3.6366450E-18
   65.77000       -3.6451835E-18
   65.93150       -3.6561201E-18
   66.09300       -3.6640197E-18
   66.25450       -3.6651153E-18
   66.41600       -3.6590909E-18
   66.57750       -3.6491863E-18
   66.73900       -3.6406022E-18
   66.90050       -3.6379871E-18
   67.06200       -3.6431913E-18
   67.22350       -3.6543570E-18
   67.38500       -3.6667796E-18
   67.54650       -3.6751585E-18
   67.70800       -3.6761701E-18
   67.86950       -3.6701168E-18
   68.03100       -3.6608181E-18
   68.19250       -3.6537581E-18
   68.35400       -3.6533664E-18
   68.51550       -3.6607734E-18
   68.67700       -3.6731700E-18
   68.83850       -3.6851285E-18
   69.00000       -3.6912720E-18
   69.16150       -3.6889592E-18
   69.32300       -3.6796373E-18
   69.48450       -3.6681486E-18
   69.64600       -3.6603139E-18
   69.80750       -3.6599996E-18
   69.96900       -3.6671750E-18
   70.13050       -3.6779502E-18
   70.29200       -3.6865926E-18
   70.45350       -3.6884745E-18
   70.61500       -3.6824542E-18
   70.77650       -3.6714879E-18
   70.93800       -3.6611705E-18
   71.09950       -3.6569663E-18
   71.26100       -3.6615026E-18
   71.42250       -3.6732721E-18
   71.58400       -3.6873569E-18
   71.74550       -3.6978046E-18
   71.90700       -3.7004859E-18
   72.06850       -3.6950423E-18
   72.23000       -3.6849982E-18
   72.39150       -3.6760080E-18
   72.55300       -3.6730905E-18
   72.71450       -3.6781938E-18
   72.87600       -3.6892309E-18
   73.03750       -3.7010588E-18
   73.19900       -3.7079401E-18
   73.36050       -3.7063329E-18
   73.52200       -3.6966764E-18
   73.68350       -3.6832851E-18
   73.84500       -3.6723444E-18
   74.00650       -3.6689273E-18
   74.16800       -3.6744794E-18
   74.32950       -3.6860256E-18
   74.49100       -3.6975635E-18
   74.65250       -3.7030080E-18
   74.81400       -3.6992572E-18
   74.97550       -3.6878392E-18
   75.13700       -3.6742672E-18
   75.29850       -3.6653701E-18
   75.46000       -3.6658995E-18
   75.62150       -3.6761168E-18
   75.78300       -3.6916223E-18
   75.94450       -3.7055264E-18
   76.10600       -3.7118944E-18
   76.26750       -3.7087065E-18
   76.42900       -3.6988175E-18
   76.59050       -3.6884459E-18
   76.75200       -3.6839767E-18
   76.91350       -3.6887168E-18
   77.07500       -3.7012378E-18
   77.23650       -3.7160973E-18
   77.39800       -3.7265430E-18
   77.55950       -3.7278234E-18
   77.72100       -3.7194664E-18
   77.88250       -3.7054474E-18
   78.04400       -3.6922108E-18
   78.20550       -3.6855570E-18
   78.36700       -3.6879116E-18
   78.52850       -3.6972765E-18
   78.69000       -3.7083024E-18
   78.85150       -3.7149405E-18
   79.01300       -3.7133796E-18
   79.17450       -3.7038844E-18
   79.33600       -3.6906834E-18
   79.49750       -3.6799400E-18
   79.65900       -3.6767711E-18
   79.82050       -3.6827111E-18
   79.98200       -3.6948752E-18
   80.14350       -3.7072713E-18
   80.30500       -3.7136890E-18
   80.46650       -3.7107819E-18
   80.62800       -3.6998139E-18
   80.78950       -3.6861368E-18
   80.95100       -3.6766040E-18
   81.11250       -3.6761569E-18
   81.27400       -3.6853080E-18
   81.43550       -3.6998267E-18
   81.59700       -3.7128515E-18
   81.75850       -3.7183816E-18
   81.92000       -3.7143776E-18
   82.08150       -3.7038344E-18
   82.24300       -3.6932489E-18
   82.40450       -3.6892549E-18
   82.56600       -3.6951746E-18
   82.72750       -3.7092842E-18
   82.88900       -3.7256877E-18
   83.05050       -3.7373261E-18
   83.21200       -3.7395595E-18
   83.37350       -3.7324825E-18
   83.53500       -3.7208338E-18
   83.69650       -3.7115747E-18
   83.85800       -3.7104059E-18
   84.01950       -3.7189590E-18
   84.18100       -3.7340414E-18
   84.34250       -3.7492619E-18
   84.50400       -3.7581777E-18
   84.66550       -3.7574183E-18
   84.82700       -3.7482647E-18
   84.98850       -3.7359633E-18
   85.15000       -3.7271340E-18
   85.31150       -3.7265181E-18
   85.47300       -3.7346340E-18
   85.63450       -3.7474541E-18
   85.79600       -3.7583038E-18
   85.95750       -3.7611026E-18
   86.11900       -3.7534193E-18
   86.28050       -3.7378187E-18
   86.44200       -3.7207754E-18
   86.60350       -3.7095957E-18
   86.76500       -3.7088152E-18
   86.92650       -3.7178795E-18
   87.08800       -3.7313278E-18
   87.24950       -3.7414715E-18
   87.41100       -3.7422755E-18
   87.57250       -3.7324834E-18
   87.73400       -3.7163475E-18
   87.89550       -3.7015319E-18
   88.05700       -3.6952193E-18
   88.21850       -3.7004065E-18
   88.38000       -3.7143433E-18
   88.54150       -3.7299228E-18
   88.70300       -3.7393279E-18
   88.86450       -3.7380242E-18
   89.02600       -3.7270513E-18
   89.18750       -3.7124408E-18
   89.34900       -3.7021254E-18
   89.51050       -3.7019389E-18
   89.67200       -3.7127332E-18
   89.83350       -3.7300204E-18
   89.99500       -3.7462431E-18
   90.15650       -3.7544835E-18
   90.31800       -3.7517728E-18
   90.47950       -3.7404106E-18
   90.64100       -3.7267336E-18
   90.80250       -3.7179845E-18
   90.96400       -3.7188283E-18
   91.12550       -3.7291519E-18
   91.28700       -3.7441735E-18
   91.44850       -3.7567702E-18
   91.61000       -3.7609309E-18
   91.77150       -3.7547089E-18
   91.93300       -3.7412568E-18
   92.09450       -3.7274082E-18
   92.25600       -3.7204135E-18
   92.41750       -3.7243695E-18
   92.57900       -3.7380966E-18
   92.74050       -3.7555857E-18
   92.90200       -3.7688793E-18
   93.06350       -3.7720118E-18
   93.22500       -3.7640345E-18
   93.38650       -3.7495431E-18
   93.54800       -3.7363769E-18
   93.70950       -3.7316202E-18
   93.87100       -3.7379473E-18
   94.03250       -3.7522248E-18
   94.19400       -3.7671244E-18
   94.35550       -3.7749231E-18
   94.51700       -3.7715064E-18
   94.67850       -3.7584895E-18
   94.84000       -3.7423524E-18
   95.00150       -3.7310991E-18
   95.16300       -3.7301925E-18
   95.32450       -3.7398767E-18
   95.48600       -3.7551948E-18
   95.64750       -3.7686010E-18
   95.80900       -3.7737613E-18
   95.97050       -3.7686225E-18
   96.13200       -3.7562644E-18
   96.29350       -3.7432305E-18
   96.45500       -3.7362346E-18
   96.61650       -3.7388986E-18
   96.77800       -3.7500767E-18
   96.93950       -3.7645043E-18
   97.10100       -3.7753987E-18
   97.26250       -3.7777496E-18
   97.42400       -3.7707322E-18
   97.58550       -3.7581189E-18
   97.74700       -3.7464838E-18
   97.90850       -3.7420307E-18
   98.07000       -3.7475285E-18
   98.23150       -3.7608594E-18
   98.39300       -3.7759339E-18
   98.55450       -3.7856318E-18
   98.71600       -3.7853547E-18
   98.87750       -3.7754182E-18
   99.03900       -3.7609934E-18
   99.20050       -3.7495547E-18
   99.36200       -3.7470603E-18
   99.52350       -3.7548404E-18
   99.68500       -3.7688470E-18
   99.84650       -3.7817072E-18
   100.0080       -3.7865574E-18
   100.1695       -3.7806555E-18
   100.3310       -3.7668618E-18
   100.4925       -3.7521843E-18
   100.6540       -3.7441520E-18
   100.8155       -3.7469330E-18
   100.9770       -3.7592154E-18
   101.1385       -3.7749454E-18
   101.3000       -3.7864668E-18
   101.4615       -3.7883987E-18
   101.6230       -3.7802601E-18
   101.7845       -3.7665698E-18
   101.9460       -3.7544698E-18
   102.1075       -3.7501499E-18
   102.2690       -3.7558520E-18
   102.4305       -3.7688822E-18
   102.5920       -3.7830166E-18
   102.7535       -3.7915581E-18
   102.9150       -3.7905502E-18
   103.0765       -3.7806555E-18
   103.2380       -3.7668295E-18
   103.3995       -3.7559782E-18
   103.5610       -3.7536712E-18
   103.7225       -3.7614446E-18
   103.8840       -3.7759645E-18
   104.0455       -3.7905109E-18
   104.2070       -3.7981507E-18
   104.3685       -3.7951439E-18
   104.5300       -3.7829099E-18
   104.6915       -3.7675066E-18
   104.8530       -3.7567400E-18
   105.0145       -3.7562793E-18
   105.1760       -3.7667125E-18
   105.3375       -3.7831229E-18
   105.4990       -3.7974898E-18
   105.6605       -3.8027581E-18
   105.8220       -3.7964856E-18
   105.9835       -3.7821493E-18
   106.1450       -3.7673966E-18
   106.3065       -3.7601211E-18
   106.4680       -3.7644059E-18
   106.6295       -3.7784394E-18
   106.7910       -3.7954686E-18
   106.9525       -3.8072563E-18
   107.1140       -3.8082155E-18
   107.2755       -3.7981036E-18
   107.4370       -3.7819694E-18
   107.5985       -3.7675033E-18
   107.7600       -3.7612266E-18
   107.9215       -3.7654250E-18
   108.0830       -3.7772760E-18
   108.2445       -3.7904427E-18
   108.4060       -3.7982492E-18
   108.5675       -3.7968727E-18
   108.7290       -3.7870785E-18
   108.8905       -3.7737634E-18
   109.0520       -3.7635887E-18
   109.2135       -3.7618243E-18
   109.3750       -3.7698525E-18
   109.5365       -3.7844758E-18
   109.6980       -3.7993684E-18
   109.8595       -3.8080310E-18
   110.0210       -3.8068936E-18
   110.1825       -3.7970961E-18
   110.3440       -3.7840155E-18
   110.5055       -3.7746824E-18
   110.6670       -3.7742874E-18
   110.8285       -3.7835233E-18
   110.9900       -3.7981615E-18
   111.1515       -3.8111764E-18
   111.3130       -3.8163706E-18
   111.4745       -3.8116297E-18
   111.6360       -3.8000582E-18
   111.7975       -3.7883702E-18
   111.9590       -3.7833632E-18
   112.1205       -3.7883569E-18
   112.2820       -3.8014880E-18
   112.4435       -3.8167429E-18
   112.6050       -3.8271385E-18
   112.7665       -3.8283288E-18
   112.9280       -3.8207237E-18
   113.0895       -3.8090699E-18
   113.2510       -3.7998154E-18
   113.4125       -3.7977272E-18
   113.5740       -3.8035394E-18
   113.7355       -3.8137754E-18
   113.8970       -3.8227006E-18
   114.0585       -3.8253158E-18
   114.2200       -3.8198374E-18
   114.3815       -3.8085017E-18
   114.5430       -3.7963897E-18
   114.7045       -3.7889165E-18
   114.8660       -3.7892288E-18
   115.0275       -3.7967268E-18
   115.1890       -3.8073792E-18
   115.3505       -3.8156766E-18
   115.5120       -3.8172971E-18
   115.6735       -3.8112318E-18
   115.8350       -3.8003316E-18
   115.9965       -3.7899559E-18
   116.1580       -3.7853311E-18
   116.3195       -3.7888714E-18
   116.4810       -3.7988311E-18
   116.6425       -3.8100493E-18
   116.8040       -3.8165113E-18
   116.9655       -3.8144661E-18
   117.1270       -3.8044807E-18
   117.2885       -3.7912599E-18
   117.4500       -3.7812614E-18
   117.6115       -3.7793001E-18
   117.7730       -3.7859759E-18
   117.9345       -3.7973211E-18
   118.0960       -3.8069048E-18
   118.2575       -3.8092652E-18
   118.4190       -3.8028351E-18
   118.5805       -3.7907888E-18
   118.7420       -3.7793837E-18