  -27.90000        6.0270824E-18
  -27.73850        6.0295962E-18
  -27.57700        6.0336485E-18
  -27.41550        6.0379408E-18
  -27.25400        6.0416015E-18
  -27.09250        6.0446033E-18
  -26.93100        6.0475807E-18
  -26.76950        6.0512195E-18
  -26.60800        6.0556743E-18
  -26.44650        6.0604178E-18
  -26.28500        6.0646157E-18
  -26.12350        6.0677375E-18
  -25.96200        6.0699531E-18
  -25.80050        6.0720235E-18
  -25.63900        6.0747631E-18
  -25.47750        6.0784491E-18
  -25.31600        6.0826189E-18
  -25.15450        6.0863999E-18
  -24.99300        6.0891486E-18
  -24.83150        6.0909312E-18
  -24.67000        6.0924855E-18
  -24.50850        6.0946874E-18
  -24.34700        6.0979006E-18
  -24.18550        6.1016854E-18
  -24.02400        6.1050896E-18
  -23.86250        6.1073234E-18
  -23.70100        6.1083289E-18
  -23.53950        6.1088525E-18
  -23.37800        6.1099547E-18
  -23.21650        6.1122940E-18
  -23.05500        6.1156788E-18
  -22.89350        6.1191893E-18
  -22.73200        6.1217937E-18
  -22.57050        6.1230304E-18
  -22.40900        6.1233000E-18
  -22.24750        6.1235639E-18
  -22.08600        6.1246711E-18
  -21.92450        6.1267895E-18
  -21.76300        6.1293384E-18
  -21.60150        6.1314519E-18
  -21.44000        6.1326215E-18
  -21.27850        6.1330488E-18
  -21.11700        6.1334520E-18
  -20.95550        6.1344951E-18
  -20.79400        6.1362702E-18
  -20.63250        6.1382310E-18
  -20.47100        6.1396166E-18
  -20.30950        6.1400645E-18
  -20.14800        6.1399499E-18
  -19.98650        6.1401956E-18
  -19.82500        6.1416572E-18
  -19.66350        6.1445118E-18
  -19.50200        6.1480840E-18
  -19.34050        6.1512438E-18
  -19.17900        6.1531244E-18
  -19.01750        6.1536642E-18
  -18.85600        6.1536063E-18
  -18.69450        6.1539450E-18
  -18.53300        6.1552226E-18
  -18.37150        6.1571735E-18
  -18.21000        6.1589627E-18
  -18.04850        6.1598358E-18
  -17.88700        6.1597117E-18
  -17.72550        6.1592745E-18
  -17.56400        6.1595206E-18
  -17.40250        6.1610674E-18
  -17.24100        6.1637355E-18
  -17.07950        6.1666761E-18
  -16.91800        6.1689571E-18
  -16.75650        6.1701859E-18
  -16.59500        6.1707368E-18
  -16.43350        6.1714341E-18
  -16.27200        6.1729172E-18
  -16.11050        6.1751626E-18
  -15.94900        6.1775064E-18
  -15.78750        6.1791562E-18
  -15.62600        6.1798279E-18
  -15.46450        6.1800186E-18
  -15.30300        6.1807175E-18
  -15.14150        6.1827301E-18
  -14.98000        6.1861141E-18
  -14.81850        6.1901217E-18
  -14.65700        6.1936985E-18
  -14.49550        6.1961817E-18
  -14.33400        6.1977082E-18
  -14.17250        6.1990549E-18
  -14.01100        6.2010368E-18
  -13.84950        6.2039013E-18
  -13.68800        6.2071364E-18
  -13.52650        6.2098273E-18
  -13.36500        6.2112967E-18
  -13.20350        6.2115685E-18
  -13.04200        6.2113228E-18
  -12.88050        6.2113691E-18
  -12.71900        6.2120317E-18
  -12.55750        6.2128924E-18
  -12.39600        6.2131041E-18
  -12.23450        6.2120524E-18
  -12.07300        6.2098831E-18
  -11.91150        6.2074987E-18
  -11.75000        6.2060053E-18
  -11.58850        6.2059941E-18
  -11.42700        6.2071633E-18
  -11.26550        6.2085493E-18
  -11.10400        6.2092036E-18
  -10.94250        6.2088504E-18
  -10.78100        6.2080695E-18
  -10.61950        6.2078933E-18
  -10.45800        6.2091010E-18
  -10.29650        6.2116930E-18
  -10.13500        6.2149115E-18
  -9.973500        6.2177736E-18
  -9.812000        6.2197439E-18
  -9.650500        6.2210686E-18
  -9.489000        6.2225493E-18
  -9.327500        6.2249241E-18
  -9.166000        6.2283193E-18
  -9.004500        6.2321649E-18
  -8.843000        6.2356241E-18
  -8.681500        6.2382041E-18
  -8.520000        6.2400884E-18
  -8.358500        6.2419541E-18
  -8.197000        6.2444253E-18
  -8.035500        6.2475744E-18
  -7.874000        6.2508550E-18
  -7.712500        6.2535160E-18
  -7.551000        6.2551989E-18
  -7.389500        6.2562652E-18
  -7.228000        6.2575994E-18
  -7.066500        6.2599966E-18
  -6.905000        6.2635481E-18
  -6.743500        6.2674793E-18
  -6.582000        6.2705841E-18
  -6.420500        6.2719837E-18
  -6.259000        6.2717012E-18
  -6.097500        6.2706461E-18
  -5.936000        6.2700080E-18
  -5.774500        6.2704757E-18
  -5.613000        6.2718149E-18
  -5.451500        6.2730871E-18
  -5.290000        6.2733365E-18
  -5.128500        6.2722604E-18
  -4.967000        6.2704000E-18
  -4.805500        6.2687490E-18
  -4.644000        6.2680686E-18
  -4.482500        6.2683921E-18
  -4.321000        6.2690596E-18
  -4.159500        6.2692296E-18
  -3.998000        6.2685033E-18
  -3.836500        6.2672150E-18
  -3.675000        6.2661909E-18
  -3.513500        6.2661595E-18
  -3.352000        6.2672385E-18
  -3.190500        6.2688813E-18
  -3.029000        6.2703057E-18
  -2.867500        6.2710911E-18
  -2.706000        6.2714927E-18
  -2.544500        6.2722384E-18
  -2.383000        6.2739755E-18
  -2.221500        6.2767602E-18
  -2.060000        6.2799900E-18
  -1.898500        6.2828024E-18
  -1.737000        6.2846734E-18
  -1.575500        6.2857666E-18
  -1.414000        6.2867960E-18
  -1.252500        6.2885008E-18
  -1.091000        6.2911002E-18
 -0.9295000        6.2941232E-18
 -0.7680000        6.2967308E-18
 -0.6065000        6.2983128E-18
 -0.4450000        6.2989245E-18
 -0.2835000        6.2992459E-18
 -0.1220000        6.3000822E-18
  3.9500002E-02    6.3017684E-18
  0.2010000        6.3039116E-18
  0.3625000        6.3056673E-18
  0.5240000        6.3063646E-18
  0.6855000        6.3060201E-18
  0.8470000        6.3053616E-18
   1.008500        6.3053360E-18
   1.170000        6.3064444E-18
   1.331500        6.3083726E-18
   1.493000        6.3101775E-18
   1.654500        6.3109186E-18
   1.816000        6.3103007E-18
   1.977500        6.3088995E-18
   2.139000        6.3078225E-18
   2.300500        6.3080161E-18
   2.462000        6.3096907E-18
   2.623500        6.3122388E-18
   2.785000        6.3146844E-18
   2.946500        6.3163450E-18
   3.108000        6.3172371E-18
   3.269500        6.3179704E-18
   3.431000        6.3192281E-18
   3.592500        6.3212357E-18
   3.754000        6.3235997E-18
   3.915500        6.3256148E-18
   4.077000        6.3267889E-18
   4.238500        6.3271943E-18
   4.400000        6.3273862E-18
   4.561500        6.3279792E-18
   4.723000        6.3291956E-18
   4.884500        6.3307321E-18
   5.046000        6.3320432E-18
   5.207500        6.3328224E-18
   5.369000        6.3333212E-18
   5.530500        6.3342402E-18
   5.692000        6.3362391E-18
   5.853500        6.3394101E-18
   6.015000        6.3431088E-18
   6.176500        6.3463079E-18
   6.338000        6.3482539E-18
   6.499500        6.3489747E-18
   6.661000        6.3492696E-18
   6.822500        6.3501564E-18
   6.984000        6.3521582E-18
   7.145500        6.3549118E-18
   7.307000        6.3573785E-18
   7.468500        6.3585109E-18
   7.630000        6.3579360E-18
   7.791500        6.3561931E-18
   7.953000        6.3543746E-18
   8.114500        6.3534233E-18
   8.276000        6.3535515E-18
   8.437500        6.3541665E-18
   8.599000        6.3543316E-18
   8.760500        6.3534386E-18
   8.922000        6.3516205E-18
   9.083500        6.3496361E-18
   9.245000        6.3483300E-18
   9.406500        6.3480715E-18
   9.568000        6.3485703E-18
   9.729500        6.3491886E-18
   9.891000        6.3494843E-18
   10.05250        6.3495724E-18
   10.21400        6.3500373E-18
   10.37550        6.3514766E-18
   10.53700        6.3540280E-18
   10.69850        6.3572296E-18
   10.86000        6.3603220E-18
   11.02150        6.3627572E-18
   11.18300        6.3645497E-18
   11.34450        6.3662053E-18
   11.50600        6.3682729E-18
   11.66750        6.3708553E-18
   11.82900        6.3734461E-18
   11.99050        6.3752443E-18
   12.15200        6.3757382E-18
   12.31350        6.3751372E-18
   12.47500        6.3743154E-18
   12.63650        6.3742753E-18
   12.79800        6.3754933E-18
   12.95950        6.3776010E-18
   13.12100        6.3796421E-18
   13.28250        6.3807290E-18
   13.44400        6.3806351E-18
   13.60550        6.3799245E-18
   13.76700        6.3795341E-18
   13.92850        6.3801140E-18
   14.09000        6.3815748E-18
   14.25150        6.3831617E-18
   14.41300        6.3839819E-18
   14.57450        6.3836245E-18
   14.73600        6.3824408E-18
   14.89750        6.3812865E-18
   15.05900        6.3809267E-18
   15.22050        6.3815206E-18
   15.38200        6.3825579E-18
   15.54350        6.3832854E-18
   15.70500        6.3833040E-18
   15.86650        6.3828896E-18
   16.02800        6.3828040E-18
   16.18950        6.3837366E-18
   16.35100        6.3857921E-18
   16.51250        6.3883953E-18
   16.67400        6.3906820E-18
   16.83550        6.3920878E-18
   16.99700        6.3927173E-18
   17.15850        6.3932297E-18
   17.32000        6.3943324E-18
   17.48150        6.3962328E-18
   17.64300        6.3984542E-18
   17.80450        6.4001388E-18
   17.96600        6.4006396E-18
   18.12750        6.3999932E-18
   18.28900        6.3989228E-18
   18.45050        6.3983740E-18
   18.61200        6.3989079E-18
   18.77350        6.4003675E-18
   18.93500        6.4020533E-18
   19.09650        6.4032601E-18
   19.25800        6.4037726E-18
   19.41950        6.4039682E-18
   19.58100        6.4044769E-18
   19.74250        6.4056718E-18
   19.90400        6.4073683E-18
   20.06550        6.4089714E-18
   20.22700        6.4099346E-18
   20.38850        6.4101969E-18
   20.55000        6.4102639E-18
   20.71150        6.4108458E-18
   20.87300        6.4123025E-18
   21.03450        6.4142964E-18
   21.19600        6.4159230E-18
   21.35750        6.4162713E-18
   21.51900        6.4150371E-18
   21.68050        6.4127644E-18
   21.84200        6.4105277E-18
   22.00350        6.4092510E-18
   22.16500        6.4091368E-18
   22.32650        6.4095897E-18
   22.48800        6.4096770E-18
   22.64950        6.4088122E-18
   22.81100        6.4071806E-18
   22.97250        6.4056412E-18
   23.13400        6.4051726E-18
   23.29550        6.4062582E-18
   23.45700        6.4086079E-18
   23.61850        6.4113777E-18
   23.78000        6.4137260E-18
   23.94150        6.4153068E-18
   24.10300        6.4163891E-18
   24.26450        6.4175460E-18
   24.42600        6.4191718E-18
   24.58750        6.4211897E-18
   24.74900        6.4231609E-18
   24.91050        6.4246771E-18
   25.07200        6.4257206E-18
   25.23350        6.4266884E-18
   25.39500        6.4280607E-18
   25.55650        6.4299673E-18
   25.71800        6.4320055E-18
   25.87950        6.4334688E-18
   26.04100        6.4338431E-18
   26.20250        6.4332144E-18
   26.36400        6.4322871E-18
   26.52550        6.4319683E-18
   26.68700        6.4327868E-18
   26.84850        6.4345420E-18
   27.01000        6.4364297E-18
   27.17150        6.4375724E-18
   27.33300        6.4376059E-18
   27.49450        6.4369251E-18
   27.65600        6.4363982E-18
   27.81750        6.4367684E-18
   27.97900        6.4381386E-18
   28.14050        6.4399179E-18
   28.30200        6.4412488E-18
   28.46350        6.4416119E-18
   28.62500        6.4411665E-18
   28.78650        6.4406007E-18
   28.94800        6.4406098E-18
   29.10950        6.4413832E-18
   29.27100        6.4424747E-18
   29.43250        6.4431253E-18
   29.59400        6.4428176E-18
   29.75550        6.4416649E-18
   29.91700        6.4403517E-18
   30.07850        6.4396689E-18
   30.24000        6.4399704E-18
   30.40150        6.4409303E-18
   30.56300        6.4417881E-18
   30.72450        6.4419060E-18
   30.88600        6.4412463E-18
   31.04750        6.4404129E-18
   31.20900        6.4402318E-18
   31.37050        6.4411715E-18
   31.53200        6.4430107E-18
   31.69350        6.4449964E-18
   31.85500        6.4463500E-18
   32.01650        6.4467686E-18
   32.17800        6.4465701E-18
   32.33950        6.4464067E-18
   32.50100        6.4467864E-18
   32.66250        6.4477397E-18
   32.82400        6.4488808E-18
   32.98550        6.4497874E-18
   33.14700        6.4503945E-18
   33.30850        6.4510923E-18
   33.47000        6.4524261E-18
   33.63150        6.4546127E-18
   33.79300        6.4572510E-18
   33.95450        6.4594824E-18
   34.11600        6.4605267E-18
   34.27750        6.4602185E-18
   34.43900        6.4591577E-18
   34.60050        6.4583160E-18
   34.76200        6.4583710E-18
   34.92350        6.4592234E-18
   35.08500        6.4600432E-18
   35.24650        6.4598364E-18
   35.40800        6.4581506E-18
   35.56950        6.4554445E-18
   35.73100        6.4528666E-18
   35.89250        6.4515762E-18
   36.05400        6.4520526E-18
   36.21550        6.4538331E-18
   36.37700        6.4558506E-18
   36.53850        6.4571265E-18
   36.70000        6.4573652E-18
   36.86150        6.4570587E-18
   37.02300        6.4570728E-18
   37.18450        6.4580261E-18
   37.34600        6.4599079E-18
   37.50750        6.4621736E-18
   37.66900        6.4641927E-18
   37.83050        6.4657003E-18
   37.99200        6.4669171E-18
   38.15350        6.4682885E-18
   38.31500        6.4700790E-18
   38.47650        6.4721473E-18
   38.63800        6.4740672E-18
   38.79950        6.4754883E-18
   38.96100        6.4764425E-18
   39.12250        6.4773416E-18
   39.28400        6.4786432E-18
   39.44550        6.4804303E-18
   39.60700        6.4822393E-18
   39.76850        6.4833023E-18
   39.93000        6.4830678E-18
   40.09150        6.4816359E-18
   40.25300        6.4797673E-18
   40.41450        6.4784215E-18
   40.57600        6.4781287E-18
   40.73750        6.4786320E-18
   40.89900        6.4790696E-18
   41.06050        6.4785820E-18
   41.22200        6.4769371E-18
   41.38350        6.4747339E-18
   41.54500        6.4730419E-18
   41.70650        6.4727086E-18
   41.86800        6.4737988E-18
   42.02950        6.4755305E-18
   42.19100        6.4767539E-18
   42.35250        6.4766604E-18
   42.51400        6.4752550E-18
   42.67550        6.4733021E-18
   42.83700        6.4717987E-18
   42.99850        6.4713470E-18
   43.16000        6.4718495E-18
   43.32150        6.4726974E-18
   43.48300        6.4732814E-18
   43.64450        6.4734373E-18
   43.80600        6.4735188E-18
   43.96750        6.4740788E-18
   44.12900        6.4754345E-18
   44.29050        6.4774371E-18
   44.45200        6.4795957E-18
   44.61350        6.4814328E-18
   44.77500        6.4827836E-18
   44.93650        6.4838106E-18
   45.09800        6.4847531E-18
   45.25950        6.4856167E-18
   45.42100        6.4860853E-18
   45.58250        6.4857478E-18
   45.74400        6.4844984E-18
   45.90550        6.4827778E-18
   46.06700        6.4814390E-18
   46.22850        6.4812608E-18
   46.39000        6.4824259E-18
   46.55150        6.4843453E-18
   46.71300        6.4859885E-18
   46.87450        6.4865332E-18
   47.03600        6.4859095E-18
   47.19750        6.4848598E-18
   47.35900        6.4844657E-18
   47.52050        6.4854447E-18
   47.68200        6.4876772E-18
   47.84350        6.4902770E-18
   48.00500        6.4921539E-18
   48.16650        6.4926920E-18
   48.32800        6.4921109E-18
   48.48950        6.4912854E-18
   48.65100        6.4911601E-18
   48.81250        6.4921523E-18
   48.97400        6.4939444E-18
   49.13550        6.4957584E-18
   49.29700        6.4969090E-18
   49.45850        6.4972204E-18
   49.62000        6.4970463E-18
   49.78150        6.4969160E-18
   49.94300        6.4971129E-18
   50.10450        6.4974971E-18
   50.26600        6.4976882E-18
   50.42750        6.4974313E-18
   50.58900        6.4968399E-18
   50.75050        6.4963279E-18
   50.91200        6.4962770E-18
   51.07350        6.4967154E-18
   51.23500        6.4972676E-18
   51.39650        6.4974442E-18
   51.55800        6.4970641E-18
   51.71950        6.4964871E-18
   51.88100        6.4964491E-18
   52.04250        6.4975695E-18
   52.20400        6.4998732E-18
   52.36550        6.5026777E-18
   52.52700        6.5049707E-18
   52.68850        6.5060415E-18
   52.85000        6.5059323E-18
   53.01150        6.5053921E-18
   53.17300        6.5053425E-18
   53.33450        6.5062292E-18
   53.49600        6.5077041E-18
   53.65750        6.5088700E-18
   53.81900        6.5089114E-18
   53.98050        6.5076838E-18
   54.14200        6.5058508E-18
   54.30350        6.5044653E-18
   54.46500        6.5042796E-18
   54.62650        6.5052441E-18
   54.78800        6.5065444E-18
   54.94950        6.5071379E-18
   55.11100        6.5064286E-18
   55.27250        6.5046195E-18
   55.43400        6.5025197E-18
   55.59550        6.5009605E-18
   55.75700        6.5002533E-18
   55.91850        6.5000622E-18
   56.08000        6.4997578E-18
   56.24150        6.4989595E-18
   56.40300        6.4978573E-18
   56.56450        6.4970881E-18
   56.72600        6.4972733E-18
   56.88750        6.4985749E-18
   57.04900        6.5006003E-18
   57.21050        6.5027154E-18
   57.37200        6.5045203E-18
   57.53350        6.5061205E-18
   57.69500        6.5079808E-18
   57.85650        6.5104710E-18
   58.01800        6.5134489E-18
   58.17950        6.5162245E-18
   58.34100        6.5179711E-18
   58.50250        6.5183085E-18
   58.66400        6.5176137E-18
   58.82550        6.5168076E-18
   58.98700        6.5167257E-18
   59.14850        6.5175149E-18
   59.31000        6.5184901E-18
   59.47150        6.5185861E-18
   59.63300        6.5171083E-18
   59.79450        6.5142748E-18
   59.95600        6.5111572E-18
   60.11750        6.5090569E-18
   60.27900        6.5087195E-18
   60.44050        6.5099094E-18
   60.60200        6.5116200E-18
   60.76350        6.5127726E-18
   60.92500        6.5129257E-18
   61.08650        6.5125195E-18
   61.24800        6.5125150E-18
   61.40950        6.5136900E-18
   61.57100        6.5161025E-18
   61.73250        6.5190696E-18
   61.89400        6.5216586E-18
   62.05550        6.5232989E-18
   62.21700        6.5240847E-18
   62.37850        6.5245749E-18
   62.54000        6.5252858E-18
   62.70150        6.5262735E-18
   62.86300        6.5271164E-18
   63.02450        6.5272847E-18
   63.18600        6.5265845E-18
   63.34750        6.5253272E-18
   63.50900        6.5240802E-18
   63.67050        6.5232005E-18
   63.83200        6.5225230E-18
   63.99350        6.5214704E-18
   64.15500        6.5195394E-18
   64.31650        6.5168022E-18
   64.47800        6.5140275E-18
   64.63950        6.5122631E-18
   64.80100        6.5121452E-18
   64.96250        6.5134232E-18
   65.12400        6.5150652E-18
   65.28550        6.5159263E-18
   65.44700        6.5155334E-18
   65.60850        6.5144390E-18
   65.77000        6.5138881E-18
   65.93150        6.5149965E-18
   66.09300        6.5179897E-18
   66.25450        6.5220156E-18
   66.41600        6.5256556E-18
   66.57750        6.5277963E-18
   66.73900        6.5282976E-18
   66.90050        6.5280139E-18
   67.06200        6.5281851E-18
   67.22350        6.5296153E-18
   67.38500        6.5321787E-18
   67.54650        6.5349704E-18
   67.70800        6.5369362E-18
   67.86950        6.5375330E-18
   68.03100        6.5369772E-18
   68.19250        6.5359676E-18
   68.35400        6.5351475E-18
   68.51550        6.5347256E-18
   68.67700        6.5344903E-18
   68.83850        6.5341466E-18
   69.00000        6.5336453E-18
   69.16150        6.5332267E-18
   69.32300        6.5331585E-18
   69.48450        6.5334013E-18
   69.64600        6.5335274E-18
   69.80750        6.5330013E-18
   69.96900        6.5316398E-18
   70.13050        6.5298973E-18
   70.29200        6.5286897E-18
   70.45350        6.5288278E-18
   70.61500        6.5304201E-18
   70.77650        6.5326961E-18
   70.93800        6.5344336E-18
   71.09950        6.5347384E-18
   71.26100        6.5336697E-18
   71.42250        6.5322490E-18
   71.58400        6.5318234E-18
   71.74550        6.5331837E-18
   71.90700        6.5360164E-18
   72.06850        6.5390559E-18
   72.23000        6.5408360E-18
   72.39150        6.5405564E-18
   72.55300        6.5385083E-18
   72.71450        6.5358187E-18
   72.87600        6.5337061E-18
   73.03750        6.5327532E-18
   73.19900        6.5326634E-18
   73.36050        6.5326097E-18
   73.52200        6.5318966E-18
   73.68350        6.5304557E-18
   73.84500        6.5288596E-18
   74.00650        6.5278927E-18
   74.16800        6.5280205E-18
   74.32950        6.5291459E-18
   74.49100        6.5307737E-18
   74.65250        6.5324153E-18
   74.81400        6.5338943E-18
   74.97550        6.5353518E-18
   75.13700        6.5369784E-18
   75.29850        6.5387407E-18
   75.46000        6.5403388E-18
   75.62150        6.5414316E-18
   75.78300        6.5419423E-18
   75.94450        6.5421731E-18
   76.10600        6.5425958E-18
   76.26750        6.5434573E-18
   76.42900        6.5445029E-18
   76.59050        6.5450720E-18
   76.75200        6.5445508E-18
   76.91350        6.5428791E-18
   77.07500        6.5407086E-18
   77.23650        6.5390522E-18
   77.39800        6.5386055E-18
   77.55950        6.5392093E-18
   77.72100        6.5398562E-18
   77.88250        6.5392958E-18
   78.04400        6.5368692E-18
   78.20550        6.5330286E-18
   78.36700        6.5291636E-18
   78.52850        6.5268115E-18
   78.69000        6.5267404E-18
   78.85150        6.5284829E-18
   79.01300        6.5306360E-18
   79.17450        6.5317502E-18
   79.33600        6.5312394E-18
   79.49750        6.5297489E-18
   79.65900        6.5287459E-18
   79.82050        6.5296058E-18
   79.98200        6.5327763E-18
   80.14350        6.5375140E-18
   80.30500        6.5423216E-18
   80.46650        6.5457581E-18
   80.62800        6.5471197E-18
   80.78950        6.5466213E-18
   80.95100        6.5450774E-18
   81.11250        6.5433742E-18
   81.27400        6.5420681E-18
   81.43550        6.5413017E-18
   81.59700        6.5409505E-18
   81.75850        6.5407992E-18
   81.92000        6.5406044E-18
   82.08150        6.5400725E-18
   82.24300        6.5388967E-18
   82.40450        6.5369412E-18
   82.56600        6.5344915E-18
   82.72750        6.5323355E-18
   82.88900        6.5314884E-18
   83.05050        6.5326241E-18
   83.21200        6.5355375E-18
   83.37350        6.5390563E-18
   83.53500        6.5415788E-18
   83.69650        6.5419911E-18
   83.85800        6.5404149E-18
   84.01950        6.5382606E-18
   84.18100        6.5374702E-18
   84.34250        6.5393582E-18
   84.50400        6.5437539E-18
   84.66550        6.5490077E-18
   84.82700        6.5528884E-18
   84.98850        6.5538504E-18
   85.15000        6.5518937E-18
   85.31150        6.5484891E-18
   85.47300        6.5456369E-18
   85.63450        6.5446497E-18
   85.79600        6.5454231E-18
   85.95750        6.5466167E-18
   86.11900        6.5465779E-18
   86.28050        6.5443796E-18
   86.44200        6.5403331E-18
   86.60350        6.5357244E-18
   86.76500        6.5320182E-18
   86.92650        6.5300975E-18
   87.08800        6.5299755E-18
   87.24950        6.5310645E-18
   87.41100        6.5326940E-18
   87.57250        6.5344919E-18
   87.73400        6.5364118E-18
   87.89550        6.5385075E-18
   88.05700        6.5407222E-18
   88.21850        6.5428994E-18
   88.38000        6.5449686E-18
   88.54150        6.5470874E-18
   88.70300        6.5495309E-18
   88.86450        6.5523574E-18
   89.02600        6.5551235E-18
   89.18750        6.5569577E-18
   89.34900        6.5570516E-18
   89.51050        6.5552819E-18
   89.67200        6.5524996E-18
   89.83350        6.5501856E-18
   89.99500        6.5495946E-18
   90.15650        6.5509168E-18
   90.31800        6.5530398E-18
   90.47950        6.5541416E-18
   90.64100        6.5527978E-18
   90.80250        6.5489039E-18
   90.96400        6.5438060E-18
   91.12550        6.5395121E-18
   91.28700        6.5374714E-18
   91.44850        6.5377001E-18
   91.61000        6.5388156E-18
   91.77150        6.5389686E-18
   91.93300        6.5370554E-18
   92.09450        6.5334402E-18
   92.25600        6.5297356E-18
   92.41750        6.5278149E-18
   92.57900        6.5287215E-18
   92.74050        6.5321473E-18
   92.90200        6.5367551E-18
   93.06350        6.5410519E-18
   93.22500        6.5442072E-18
   93.38650        6.5463156E-18
   93.54800        6.5480449E-18
   93.70950        6.5500069E-18
   93.87100        6.5523297E-18
   94.03250        6.5546718E-18
   94.19400        6.5565706E-18
   94.35550        6.5577709E-18
   94.51700        6.5582787E-18
   94.67850        6.5581443E-18
   94.84000        6.5572390E-18
   95.00150        6.5552980E-18
   95.16300        6.5522445E-18
   95.32450        6.5485279E-18
   95.48600        6.5451224E-18
   95.64750        6.5430652E-18
   95.80900        6.5427885E-18
   95.97050        6.5437199E-18
   96.13200        6.5445227E-18
   96.29350        6.5439003E-18
   96.45500        6.5414808E-18
   96.61650        6.5381687E-18
   96.77800        6.5356702E-18
   96.93950        6.5354440E-18
   97.10100        6.5377448E-18
   97.26250        6.5414026E-18
   97.42400        6.5445169E-18
   97.58550        6.5456353E-18
   97.74700        6.5446580E-18
   97.90850        6.5428816E-18
   98.07000        6.5421491E-18
   98.23150        6.5436674E-18
   98.39300        6.5472508E-18
   98.55450        6.5514644E-18
   98.71600        6.5545225E-18
   98.87750        6.5553472E-18
   99.03900        6.5541056E-18
   99.20050        6.5519516E-18
   99.36200        6.5502162E-18
   99.52350        6.5496223E-18
   99.68500        6.5500102E-18
   99.84650        6.5506616E-18
   100.0080        6.5509032E-18
   100.1695        6.5505359E-18
   100.3310        6.5498407E-18
   100.4925        6.5492513E-18
   100.6540        6.5490267E-18
   100.8155        6.5491793E-18
   100.9770        6.5496736E-18
   101.1385        6.5506306E-18
   101.3000        6.5522966E-18
   101.4615        6.5547297E-18
   101.6230        6.5574681E-18
   101.7845        6.5595141E-18
   101.9460        6.5597830E-18
   102.1075        6.5577808E-18
   102.2690        6.5540601E-18
   102.4305        6.5500520E-18
   102.5920        6.5473025E-18
   102.7535        6.5465377E-18
   102.9150        6.5471937E-18
   103.0765        6.5477562E-18
   103.2380        6.5467462E-18
   103.3995        6.5437344E-18
   103.5610        6.5397238E-18
   103.7225        6.5366095E-18
   103.8840        6.5360462E-18
   104.0455        6.5384239E-18
   104.2070        6.5426128E-18
   104.3685        6.5466205E-18
   104.5300        6.5487492E-18
   104.6915        6.5485168E-18
   104.8530        6.5467971E-18
   105.0145        6.5451526E-18
   105.1760        6.5448412E-18
   105.3375        6.5461366E-18
   105.4990        6.5483364E-18
   105.6605        6.5503622E-18
   105.8220        6.5514694E-18
   105.9835        6.5516079E-18
   106.1450        6.5512593E-18
   106.3065        6.5509735E-18
   106.4680        6.5510062E-18
   106.6295        6.5512915E-18
   106.7910        6.5517072E-18
   106.9525        6.5523259E-18
   107.1140        6.5534029E-18
   107.2755        6.5550883E-18
   107.4370        6.5571236E-18
   107.5985        6.5588350E-18
   107.7600        6.5595088E-18
   107.9215        6.5589194E-18
   108.0830        6.5575942E-18
   108.2445        6.5565623E-18
   108.4060        6.5566839E-18
   108.5675        6.5580153E-18
   108.7290        6.5596647E-18
   108.8905        6.5603086E-18
   109.0520        6.5590517E-18
   109.2135        6.5560693E-18
   109.3750        6.5525526E-18
   109.5365        6.5499813E-18
   109.6980        6.5491806E-18
   109.8595        6.5497989E-18
   110.0210        6.5505632E-18
   110.1825        6.5501558E-18
   110.3440        6.5481044E-18
   110.5055        6.5450964E-18
   110.6670        6.5425102E-18
   110.8285        6.5414969E-18
   110.9900        6.5422496E-18
   111.1515        6.5439487E-18
   111.3130        6.5453863E-18
   111.4745        6.5458156E-18
   111.6360        6.5454281E-18
   111.7975        6.5451452E-18
   111.9590        6.5458983E-18
   112.1205        6.5479299E-18
   112.2820        6.5506021E-18
   112.4435        6.5528330E-18
   112.6050        6.5538211E-18
   112.7665        6.5535456E-18
   112.9280        6.5527064E-18
   113.0895        6.5521878E-18
   113.2510        6.5524525E-18
   113.4125        6.5532954E-18
   113.5740        6.5541011E-18
   113.7355        6.5543600E-18
   113.8970        6.5540448E-18
   114.0585        6.5535845E-18
   114.2200        6.5534827E-18
   114.3815        6.5539216E-18
   114.5430        6.5546573E-18
   114.7045        6.5552765E-18
   114.8660        6.5555904E-18
   115.0275        6.5558075E-18
   115.1890        6.5563427E-18
   115.3505        6.5573903E-18
   115.5120        6.5586286E-18
   115.6735        6.5593342E-18
   115.8350        6.5588731E-18
   115.9965        6.5572212E-18
   116.1580        6.5551082E-18
   116.3195        6.5536064E-18
   116.4810        6.5534079E-18
   116.6425        6.5543041E-18
   116.8040        6.5552504E-18
   116.9655        6.5550556E-18
   117.1270        6.5532408E-18
   117.2885        6.5504941E-18
   117.4500        6.5483592E-18
   117.6115        6.5483195E-18
   117.7730        6.5508391E-18
   117.9345        6.5549828E-18
   118.0960        6.5588880E-18
   118.2575        6.5608000E-18
   118.4190        6.5600410E-18
   118.5805        6.5573188E-18
   118.7420        6.5542181E-18