  -27.90000        8.7831526E-18
  -27.73850        8.8112015E-18
  -27.57700        8.8564566E-18
  -27.41550        8.9027299E-18
  -27.25400        8.9356872E-18
  -27.09250        8.9491066E-18
  -26.93100        8.9473132E-18
  -26.76950        8.9427133E-18
  -26.60800        8.9496045E-18
  -26.44650        8.9771563E-18
  -26.28500        9.0248532E-18
  -26.12350        9.0825068E-18
  -25.96200        9.1348334E-18
  -25.80050        9.1684583E-18
  -25.63900        9.1780851E-18
  -25.47750        9.1689604E-18
  -25.31600        9.1544922E-18
  -25.15450        9.1501148E-18
  -24.99300        9.1662630E-18
  -24.83150        9.2036789E-18
  -24.67000        9.2532179E-18
  -24.50850        9.3002009E-18
  -24.34700        9.3312723E-18
  -24.18550        9.3405731E-18
  -24.02400        9.3323633E-18
  -23.86250        9.3189341E-18
  -23.70100        9.3147940E-18
  -23.53950        9.3298917E-18
  -23.37800        9.3650089E-18
  -23.21650        9.4114774E-18
  -23.05500        9.4552907E-18
  -22.89350        9.4836762E-18
  -22.73200        9.4910397E-18
  -22.57050        9.4815123E-18
  -22.40900        9.4669349E-18
  -22.24750        9.4612654E-18
  -22.08600        9.4740271E-18
  -21.92450        9.5058818E-18
  -21.76300        9.5483782E-18
  -21.60150        9.5879555E-18
  -21.44000        9.6123094E-18
  -21.27850        9.6161252E-18
  -21.11700        9.6035007E-18
  -20.95550        9.5859604E-18
  -20.79400        9.5770219E-18
  -20.63250        9.5858992E-18
  -20.47100        9.6132904E-18
  -20.30950        9.6512150E-18
  -20.14800        9.6869178E-18
  -19.98650        9.7089778E-18
  -19.82500        9.7127035E-18
  -19.66350        9.7022719E-18
  -19.50200        9.6886383E-18
  -19.34050        9.6842178E-18
  -19.17900        9.6969002E-18
  -19.01750        9.7262353E-18
  -18.85600        9.7635908E-18
  -18.69450        9.7962016E-18
  -18.53300        9.8131976E-18
  -18.37150        9.8107285E-18
  -18.21000        9.7937862E-18
  -18.04850        9.7738602E-18
  -17.88700        9.7635478E-18
  -17.72550        9.7706797E-18
  -17.56400        9.7947358E-18
  -17.40250        9.8272365E-18
  -17.24100        9.8559050E-18
  -17.07950        9.8705957E-18
  -16.91800        9.8681580E-18
  -16.75650        9.8539098E-18
  -16.59500        9.8390264E-18
  -16.43350        9.8350815E-18
  -16.27200        9.8483636E-18
  -16.11050        9.8767011E-18
  -15.94900        9.9103450E-18
  -15.78750        9.9365088E-18
  -15.62600        9.9454539E-18
  -15.46450        9.9351927E-18
  -15.30300        9.9125850E-18
  -15.14150        9.8902553E-18
  -14.98000        9.8807791E-18
  -14.81850        9.8908658E-18
  -14.65700        9.9183009E-18
  -14.49550        9.9531061E-18
  -14.33400        9.9823635E-18
  -14.17250        9.9964355E-18
  -14.01100        9.9935958E-18
  -13.84950        9.9808564E-18
  -13.68800        9.9705621E-18
  -13.52650        9.9743589E-18
  -13.36500        9.9973934E-18
  -13.20350        1.0035541E-17
  -13.04200        1.0077033E-17
  -12.88050        1.0107779E-17
  -12.71900        1.0117910E-17
  -12.55750        1.0106460E-17
  -12.39600        1.0081931E-17
  -12.23450        1.0058451E-17
  -12.07300        1.0049245E-17
  -11.91150        1.0060523E-17
  -11.75000        1.0088631E-17
  -11.58850        1.0121863E-17
  -11.42700        1.0146092E-17
  -11.26550        1.0151582E-17
  -11.10400        1.0137757E-17
  -10.94250        1.0113637E-17
  -10.78100        1.0093698E-17
  -10.61950        1.0091062E-17
  -10.45800        1.0111233E-17
  -10.29650        1.0149344E-17
  -10.13500        1.0192264E-17
  -9.973500        1.0224635E-17
  -9.812000        1.0236016E-17
  -9.650500        1.0225788E-17
  -9.489000        1.0203488E-17
  -9.327500        1.0184380E-17
  -9.166000        1.0182293E-17
  -9.004500        1.0203087E-17
  -8.843000        1.0241799E-17
  -8.681500        1.0284844E-17
  -8.520000        1.0316268E-17
  -8.358500        1.0325136E-17
  -8.197000        1.0310638E-17
  -8.035500        1.0282477E-17
  -7.874000        1.0256380E-17
  -7.712500        1.0246793E-17
  -7.551000        1.0260192E-17
  -7.389500        1.0292125E-17
  -7.228000        1.0329382E-17
  -7.066500        1.0356284E-17
  -6.905000        1.0362145E-17
  -6.743500        1.0346421E-17
  -6.582000        1.0319110E-17
  -6.420500        1.0296218E-17
  -6.259000        1.0292366E-17
  -6.097500        1.0313989E-17
  -5.936000        1.0356288E-17
  -5.774500        1.0405351E-17
  -5.613000        1.0444471E-17
  -5.451500        1.0461721E-17
  -5.290000        1.0455288E-17
  -5.128500        1.0434104E-17
  -4.967000        1.0413528E-17
  -4.805500        1.0408090E-17
  -4.644000        1.0424709E-17
  -4.482500        1.0459518E-17
  -4.321000        1.0499766E-17
  -4.159500        1.0529883E-17
  -3.998000        1.0538848E-17
  -3.836500        1.0525436E-17
  -3.675000        1.0498872E-17
  -3.513500        1.0474628E-17
  -3.352000        1.0467287E-17
  -3.190500        1.0483848E-17
  -3.029000        1.0520516E-17
  -2.867500        1.0564505E-17
  -2.706000        1.0599943E-17
  -2.544500        1.0615143E-17
  -2.383000        1.0607856E-17
  -2.221500        1.0586095E-17
  -2.060000        1.0564212E-17
  -1.898500        1.0556099E-17
  -1.737000        1.0568718E-17
  -1.575500        1.0598976E-17
  -1.414000        1.0635351E-17
  -1.252500        1.0663455E-17
  -1.091000        1.0672890E-17
 -0.9295000        1.0662158E-17
 -0.7680000        1.0639358E-17
 -0.6065000        1.0618368E-17
 -0.4450000        1.0612354E-17
 -0.2835000        1.0627650E-17
 -0.1220000        1.0660871E-17
  3.9500002E-02    1.0700561E-17
  0.2010000        1.0732574E-17
  0.3625000        1.0746610E-17
  0.5240000        1.0740862E-17
  0.6855000        1.0722639E-17
  0.8470000        1.0704737E-17
   1.008500        1.0699321E-17
   1.170000        1.0712240E-17
   1.331500        1.0740409E-17
   1.493000        1.0773454E-17
   1.654500        1.0798765E-17
   1.816000        1.0807532E-17
   1.977500        1.0798889E-17
   2.139000        1.0780253E-17
   2.300500        1.0763728E-17
   2.462000        1.0760339E-17
   2.623500        1.0774826E-17
   2.785000        1.0803468E-17
   2.946500        1.0835911E-17
   3.108000        1.0860107E-17
   3.269500        1.0867994E-17
   3.431000        1.0859226E-17
   3.592500        1.0841235E-17
   3.754000        1.0825615E-17
   3.915500        1.0822592E-17
   4.077000        1.0836207E-17
   4.238500        1.0862484E-17
   4.400000        1.0891420E-17
   4.561500        1.0911827E-17
   4.723000        1.0916681E-17
   4.884500        1.0906451E-17
   5.046000        1.0888825E-17
   5.207500        1.0874970E-17
   5.369000        1.0874140E-17
   5.530500        1.0889199E-17
   5.692000        1.0915208E-17
   5.853500        1.0941765E-17
   6.015000        1.0957987E-17
   6.176500        1.0957769E-17
   6.338000        1.0942811E-17
   6.499500        1.0921941E-17
   6.661000        1.0907037E-17
   6.822500        1.0907480E-17
   6.984000        1.0925748E-17
   7.145500        1.0956283E-17
   7.307000        1.0988151E-17
   7.468500        1.1010276E-17
   7.630000        1.1016726E-17
   7.791500        1.1009527E-17
   7.953000        1.0997658E-17
   8.114500        1.0992657E-17
   8.276000        1.1002947E-17
   8.437500        1.1029589E-17
   8.599000        1.1065528E-17
   8.760500        1.1098745E-17
   8.922000        1.1117845E-17
   9.083500        1.1117474E-17
   9.245000        1.1100952E-17
   9.406500        1.1078875E-17
   9.568000        1.1064283E-17
   9.729500        1.1066645E-17
   9.891000        1.1087488E-17
   10.05250        1.1119715E-17
   10.21400        1.1150984E-17
   10.37550        1.1169549E-17
   10.53700        1.1169852E-17
   10.69850        1.1155217E-17
   10.86000        1.1136366E-17
   11.02150        1.1126395E-17
   11.18300        1.1134563E-17
   11.34450        1.1161787E-17
   11.50600        1.1199976E-17
   11.66750        1.1235601E-17
   11.82900        1.1255861E-17
   11.99050        1.1254639E-17
   12.15200        1.1235438E-17
   12.31350        1.1209908E-17
   12.47500        1.1192564E-17
   12.63650        1.1194126E-17
   12.79800        1.1216533E-17
   12.95950        1.1251993E-17
   13.12100        1.1286553E-17
   13.28250        1.1306556E-17
   13.44400        1.1305036E-17
   13.60550        1.1285038E-17
   13.76700        1.1258309E-17
   13.92850        1.1239906E-17
   14.09000        1.1241192E-17
   14.25150        1.1264498E-17
   14.41300        1.1301933E-17
   14.57450        1.1338965E-17
   14.73600        1.1361134E-17
   14.89750        1.1360810E-17
   15.05900        1.1340837E-17
   15.22050        1.1313332E-17
   15.38200        1.1294168E-17
   15.54350        1.1295657E-17
   15.70500        1.1320809E-17
   15.86650        1.1361849E-17
   16.02800        1.1403704E-17
   16.18950        1.1430877E-17
   16.35100        1.1434547E-17
   16.51250        1.1416611E-17
   16.67400        1.1388771E-17
   16.83550        1.1367096E-17
   16.99700        1.1364558E-17
   17.15850        1.1384999E-17
   17.32000        1.1421358E-17
   17.48150        1.1458953E-17
   17.64300        1.1482344E-17
   17.80450        1.1482571E-17
   17.96600        1.1461395E-17
   18.12750        1.1430568E-17
   18.28900        1.1406435E-17
   18.45050        1.1402388E-17
   18.61200        1.1422659E-17
   18.77350        1.1460363E-17
   18.93500        1.1500684E-17
   19.09650        1.1527724E-17
   19.25800        1.1531829E-17
   19.41950        1.1514002E-17
   19.58100        1.1485339E-17
   19.74250        1.1461809E-17
   19.90400        1.1456796E-17
   20.06550        1.1474920E-17
   20.22700        1.1509982E-17
   20.38850        1.1547991E-17
   20.55000        1.1573803E-17
   20.71150        1.1578254E-17
   20.87300        1.1562453E-17
   21.03450        1.1537226E-17
   21.19600        1.1518009E-17
   21.35750        1.1517585E-17
   21.51900        1.1540078E-17
   21.68050        1.1579000E-17
   21.84200        1.1620246E-17
   22.00350        1.1648629E-17
   22.16500        1.1654864E-17
   22.32650        1.1639785E-17
   22.48800        1.1613793E-17
   22.64950        1.1591864E-17
   22.81100        1.1586486E-17
   22.97250        1.1601840E-17
   23.13400        1.1631983E-17
   23.29550        1.1663832E-17
   23.45700        1.1683532E-17
   23.61850        1.1683139E-17
   23.78000        1.1664469E-17
   23.94150        1.1638267E-17
   24.10300        1.1619106E-17
   24.26450        1.1618464E-17
   24.42600        1.1639276E-17
   24.58750        1.1674553E-17
   24.74900        1.1710735E-17
   24.91050        1.1734130E-17
   25.07200        1.1737397E-17
   25.23350        1.1722930E-17
   25.39500        1.1701583E-17
   25.55650        1.1687350E-17
   25.71800        1.1690582E-17
   25.87950        1.1713014E-17
   26.04100        1.1746966E-17
   26.20250        1.1779112E-17
   26.36400        1.1796964E-17
   26.52550        1.1794928E-17
   26.68700        1.1777029E-17
   26.84850        1.1754971E-17
   27.01000        1.1742477E-17
   27.17150        1.1748665E-17
   27.33300        1.1773617E-17
   27.49450        1.1808335E-17
   27.65600        1.1839054E-17
   27.81750        1.1853893E-17
   27.97900        1.1848598E-17
   28.14050        1.1828632E-17
   28.30200        1.1806571E-17
   28.46350        1.1796061E-17
   28.62500        1.1805231E-17
   28.78650        1.1832748E-17
   28.94800        1.1868423E-17
   29.10950        1.1898101E-17
   29.27100        1.1910482E-17
   29.43250        1.1902612E-17
   29.59400        1.1881347E-17
   29.75550        1.1860080E-17
   29.91700        1.1852253E-17
   30.07850        1.1864786E-17
   30.24000        1.1894575E-17
   30.40150        1.1929833E-17
   30.56300        1.1955649E-17
   30.72450        1.1961161E-17
   30.88600        1.1944882E-17
   31.04750        1.1915604E-17
   31.20900        1.1888369E-17
   31.37050        1.1877395E-17
   31.53200        1.1889303E-17
   31.69350        1.1919905E-17
   31.85500        1.1956140E-17
   32.01650        1.1982279E-17
   32.17800        1.1987484E-17
   32.33950        1.1971093E-17
   32.50100        1.1943066E-17
   32.66250        1.1919334E-17
   32.82400        1.1914198E-17
   32.98550        1.1933404E-17
   33.14700        1.1971221E-17
   33.30850        1.2012979E-17
   33.47000        1.2041905E-17
   33.63150        1.2047078E-17
   33.79300        1.2028693E-17
   33.95450        1.1998105E-17
   34.11600        1.1972574E-17
   34.27750        1.1967147E-17
   34.43900        1.1987498E-17
   34.60050        1.2027159E-17
   34.76200        1.2070470E-17
   34.92350        1.2099913E-17
   35.08500        1.2104376E-17
   35.24650        1.2084447E-17
   35.40800        1.2052182E-17
   35.56950        1.2025443E-17
   35.73100        1.2019436E-17
   35.89250        1.2039458E-17
   36.05400        1.2078277E-17
   36.21550        1.2119467E-17
   36.37700        1.2145122E-17
   36.53850        1.2144362E-17
   36.70000        1.2118589E-17
   36.86150        1.2081001E-17
   37.02300        1.2050551E-17
   37.18450        1.2043157E-17
   37.34600        1.2064308E-17
   37.50750        1.2106514E-17
   37.66900        1.2152844E-17
   37.83050        1.2184854E-17
   37.99200        1.2191203E-17
   38.15350        1.2172884E-17
   38.31500        1.2142640E-17
   38.47650        1.2118823E-17
   38.63800        1.2116625E-17
   38.79950        1.2140819E-17
   38.96100        1.2183433E-17
   39.12250        1.2227457E-17
   39.28400        1.2254807E-17
   39.44550        1.2254823E-17
   39.60700        1.2229260E-17
   39.76850        1.2191480E-17
   39.93000        1.2160219E-17
   40.09150        1.2150883E-17
   40.25300        1.2168459E-17
   40.41450        1.2205357E-17
   40.57600        1.2245152E-17
   40.73750        1.2270415E-17
   40.89900        1.2270930E-17
   41.06050        1.2248430E-17
   41.22200        1.2215654E-17
   41.38350        1.2190236E-17
   41.54500        1.2186323E-17
   41.70650        1.2207915E-17
   41.86800        1.2247042E-17
   42.02950        1.2287584E-17
   42.19100        1.2312913E-17
   42.35250        1.2313701E-17
   42.51400        1.2292224E-17
   42.67550        1.2261150E-17
   42.83700        1.2237452E-17
   42.99850        1.2234359E-17
   43.16000        1.2255168E-17
   43.32150        1.2291839E-17
   43.48300        1.2328955E-17
   43.64450        1.2351119E-17
   43.80600        1.2350241E-17
   43.96750        1.2329241E-17
   44.12900        1.2300482E-17
   44.29050        1.2279738E-17
   44.45200        1.2278638E-17
   44.61350        1.2299223E-17
   44.77500        1.2333160E-17
   44.93650        1.2365946E-17
   45.09800        1.2383979E-17
   45.25950        1.2381091E-17
   45.42100        1.2361419E-17
   45.58250        1.2337278E-17
   45.74400        1.2323138E-17
   45.90550        1.2328650E-17
   46.06700        1.2354057E-17
   46.22850        1.2390175E-17
   46.39000        1.2422878E-17
   46.55150        1.2439885E-17
   46.71300        1.2436552E-17
   46.87450        1.2417930E-17
   47.03600        1.2396134E-17
   47.19750        1.2384374E-17
   47.35900        1.2390553E-17
   47.52050        1.2413522E-17
   47.68200        1.2443772E-17
   47.84350        1.2468172E-17
   48.00500        1.2476429E-17
   48.16650        1.2466121E-17
   48.32800        1.2443883E-17
   48.48950        1.2422163E-17
   48.65100        1.2413175E-17
   48.81250        1.2422949E-17
   48.97400        1.2448398E-17
   49.13550        1.2478801E-17
   49.29700        1.2500986E-17
   49.45850        1.2505693E-17
   49.62000        1.2492037E-17
   49.78150        1.2467912E-17
   49.94300        1.2446150E-17
   50.10450        1.2438293E-17
   50.26600        1.2449024E-17
   50.42750        1.2473937E-17
   50.58900        1.2501748E-17
   50.75050        1.2519861E-17
   50.91200        1.2520590E-17
   51.07350        1.2504996E-17
   51.23500        1.2482474E-17
   51.39650        1.2466254E-17
   51.55800        1.2466997E-17
   51.71950        1.2487565E-17
   51.88100        1.2521496E-17
   52.04250        1.2555960E-17
   52.20400        1.2577777E-17
   52.36550        1.2579642E-17
   52.52700        1.2563572E-17
   52.68850        1.2539906E-17
   52.85000        1.2522346E-17
   53.01150        1.2521390E-17
   53.17300        1.2539314E-17
   53.33450        1.2569086E-17
   53.49600        1.2597765E-17
   53.65750        1.2612751E-17
   53.81900        1.2607919E-17
   53.98050        1.2586686E-17
   54.14200        1.2560523E-17
   54.30350        1.2543592E-17
   54.46500        1.2546039E-17
   54.62650        1.2569127E-17
   54.78800        1.2604535E-17
   54.94950        1.2638207E-17
   55.11100        1.2656905E-17
   55.27250        1.2654403E-17
   55.43400        1.2634376E-17
   55.59550        1.2608612E-17
   55.75700        1.2591395E-17
   55.91850        1.2592741E-17
   56.08000        1.2613659E-17
   56.24150        1.2645703E-17
   56.40300        1.2675013E-17
   56.56450        1.2688894E-17
   56.72600        1.2681837E-17
   56.88750        1.2658129E-17
   57.04900        1.2629841E-17
   57.21050        1.2611172E-17
   57.37200        1.2611814E-17
   57.53350        1.2632478E-17
   57.69500        1.2664640E-17
   57.85650        1.2694594E-17
   58.01800        1.2709905E-17
   58.17950        1.2705205E-17
   58.34100        1.2684658E-17
   58.50250        1.2659958E-17
   58.66400        1.2644849E-17
   58.82550        1.2648716E-17
   58.98700        1.2672254E-17
   59.14850        1.2707202E-17
   59.31000        1.2740219E-17
   59.47150        1.2759076E-17
   59.63300        1.2758254E-17
   59.79450        1.2741354E-17
   59.95600        1.2719229E-17
   60.11750        1.2704758E-17
   60.27900        1.2706747E-17
   60.44050        1.2725820E-17
   60.60200        1.2754220E-17
   60.76350        1.2779555E-17
   60.92500        1.2790694E-17
   61.08650        1.2783018E-17
   61.24800        1.2760565E-17
   61.40950        1.2734103E-17
   61.57100        1.2716105E-17
   61.73250        1.2715012E-17
   61.89400        1.2731480E-17
   62.05550        1.2758330E-17
   62.21700        1.2784104E-17
   62.37850        1.2798514E-17
   62.54000        1.2797166E-17
   62.70150        1.2783382E-17
   62.86300        1.2766359E-17
   63.02450        1.2756598E-17
   63.18600        1.2760864E-17
   63.34750        1.2779002E-17
   63.50900        1.2804099E-17
   63.67050        1.2825818E-17
   63.83200        1.2835283E-17
   63.99350        1.2829212E-17
   64.15500        1.2811358E-17
   64.31650        1.2790669E-17
   64.47800        1.2777072E-17
   64.63950        1.2776911E-17
   64.80100        1.2790174E-17
   64.96250        1.2810751E-17
   65.12400        1.2829546E-17
   65.28550        1.2838884E-17
   65.44700        1.2836118E-17
   65.60850        1.2824735E-17
   65.77000        1.2812485E-17
   65.93150        1.2807515E-17
   66.09300        1.2814381E-17
   66.25450        1.2831879E-17
   66.41600        1.2853683E-17
   66.57750        1.2871459E-17
   66.73900        1.2878883E-17
   66.90050        1.2874634E-17
   67.06200        1.2862919E-17
   67.22350        1.2851350E-17
   67.38500        1.2847221E-17
   67.54650        1.2854025E-17
   67.70800        1.2869892E-17
   67.86950        1.2888626E-17
   68.03100        1.2902822E-17
   68.19250        1.2907485E-17
   68.35400        1.2902415E-17
   68.51550        1.2892217E-17
   68.67700        1.2883979E-17
   68.83850        1.2883783E-17
   69.00000        1.2893742E-17
   69.16150        1.2911003E-17
   69.32300        1.2929166E-17
   69.48450        1.2941419E-17
   69.64600        1.2943851E-17
   69.80750        1.2937350E-17
   69.96900        1.2927163E-17
   70.13050        1.2920344E-17
   70.29200        1.2922318E-17
   70.45350        1.2934220E-17
   70.61500        1.2952299E-17
   70.77650        1.2969692E-17
   70.93800        1.2979722E-17
   71.09950        1.2979131E-17
   71.26100        1.2969697E-17
   71.42250        1.2957416E-17
   71.58400        1.2949651E-17
   71.74550        1.2951581E-17
   71.90700        1.2963706E-17
   72.06850        1.2981571E-17
   72.23000        1.2997921E-17
   72.39150        1.3006219E-17
   72.55300        1.3003867E-17
   72.71450        1.2993531E-17
   72.87600        1.2981925E-17
   73.03750        1.2976600E-17
   73.19900        1.2982281E-17
   73.36050        1.2998495E-17
   73.52200        1.3019657E-17
   73.68350        1.3037612E-17
   73.84500        1.3045409E-17
   74.00650        1.3040571E-17
   74.16800        1.3026274E-17
   74.32950        1.3009888E-17
   74.49100        1.2999549E-17
   74.65250        1.3000381E-17
   74.81400        1.3012127E-17
   74.97550        1.3029325E-17
   75.13700        1.3043943E-17
   75.29850        1.3049222E-17
   75.46000        1.3042951E-17
   75.62150        1.3028605E-17
   75.78300        1.3013800E-17
   75.94450        1.3006769E-17
   76.10600        1.3012488E-17
   76.26750        1.3030256E-17
   76.42900        1.3053881E-17
   76.59050        1.3074412E-17
   76.75200        1.3084170E-17
   76.91350        1.3080222E-17
   77.07500        1.3065669E-17
   77.23650        1.3048160E-17
   77.39800        1.3036301E-17
   77.55950        1.3035644E-17
   77.72100        1.3046117E-17
   77.88250        1.3062106E-17
   78.04400        1.3075154E-17
   78.20550        1.3078020E-17
   78.36700        1.3068196E-17
   78.52850        1.3049218E-17
   78.69000        1.3029168E-17
   78.85150        1.3017034E-17
   79.01300        1.3018628E-17
   79.17450        1.3033966E-17
   79.33600        1.3057301E-17
   79.49750        1.3079791E-17
   79.65900        1.3093550E-17
   79.82050        1.3095193E-17
   79.98200        1.3087265E-17
   80.14350        1.3076908E-17
   80.30500        1.3072431E-17
   80.46650        1.3079372E-17
   80.62800        1.3097905E-17
   80.78950        1.3122765E-17
   80.95100        1.3145705E-17
   81.11250        1.3159314E-17
   81.27400        1.3160432E-17
   81.43550        1.3151571E-17
   81.59700        1.3139724E-17
   81.75850        1.3133118E-17
   81.92000        1.3137440E-17
   82.08150        1.3153264E-17
   82.24300        1.3175871E-17
   82.40450        1.3197508E-17
   82.56600        1.3211013E-17
   82.72750        1.3213131E-17
   82.88900        1.3205954E-17
   83.05050        1.3195864E-17
   83.21200        1.3190487E-17
   83.37350        1.3195097E-17
   83.53500        1.3210180E-17
   83.69650        1.3231237E-17
   83.85800        1.3250935E-17
   84.01950        1.3262535E-17
   84.18100        1.3262978E-17
   84.34250        1.3254197E-17
   84.50400        1.3242046E-17
   84.66550        1.3233424E-17
   84.82700        1.3232966E-17
   84.98850        1.3240883E-17
   85.15000        1.3252964E-17
   85.31150        1.3262680E-17
   85.47300        1.3264366E-17
   85.63450        1.3255950E-17
   85.79600        1.3239954E-17
   85.95750        1.3222302E-17
   86.11900        1.3209571E-17
   86.28050        1.3205971E-17
   86.44200        1.3211507E-17
   86.60350        1.3222153E-17
   86.76500        1.3231909E-17
   86.92650        1.3235743E-17
   87.08800        1.3231970E-17
   87.24950        1.3222977E-17
   87.41100        1.3213942E-17
   87.57250        1.3210205E-17
   87.73400        1.3214563E-17
   87.89550        1.3225813E-17
   88.05700        1.3239252E-17
   88.21850        1.3248907E-17
   88.38000        1.3250437E-17
   88.54150        1.3243277E-17
   88.70300        1.3230995E-17
   88.86450        1.3219642E-17
   89.02600        1.3214901E-17
   89.18750        1.3219379E-17
   89.34900        1.3231415E-17
   89.51050        1.3245957E-17
   89.67200        1.3257103E-17
   89.83350        1.3261070E-17
   89.99500        1.3258105E-17
   90.15650        1.3252385E-17
   90.31800        1.3249915E-17
   90.47950        1.3255451E-17
   90.64100        1.3269980E-17
   90.80250        1.3290029E-17
   90.96400        1.3309195E-17
   91.12550        1.3321192E-17
   91.28700        1.3322920E-17
   91.44850        1.3316068E-17
   91.61000        1.3306404E-17
   91.77150        1.3301078E-17
   91.93300        1.3305192E-17
   92.09450        1.3319301E-17
   92.25600        1.3339081E-17
   92.41750        1.3357363E-17
   92.57900        1.3367584E-17
   92.74050        1.3367017E-17
   92.90200        1.3358184E-17
   93.06350        1.3347736E-17
   93.22500        1.3343269E-17
   93.38650        1.3349578E-17
   93.54800        1.3366172E-17
   93.70950        1.3387261E-17
   93.87100        1.3404358E-17
   94.03250        1.3410282E-17
   94.19400        1.3402688E-17
   94.35550        1.3385387E-17
   94.51700        1.3366732E-17
   94.67850        1.3355752E-17
   94.84000        1.3357855E-17
   95.00150        1.3372164E-17
   95.16300        1.3391826E-17
   95.32450        1.3407244E-17
   95.48600        1.3410715E-17
   95.64750        1.3400250E-17
   95.80900        1.3380694E-17
   95.97050        1.3361549E-17
   96.13200        1.3352452E-17
   96.29350        1.3358513E-17
   96.45500        1.3377741E-17
   96.61650        1.3401893E-17
   96.77800        1.3420368E-17
   96.93950        1.3425309E-17
   97.10100        1.3415454E-17
   97.26250        1.3396850E-17
   97.42400        1.3380040E-17
   97.58550        1.3375041E-17
   97.74700        1.3386503E-17
   97.90850        1.3411371E-17
   98.07000        1.3440207E-17
   98.23150        1.3461567E-17
   98.39300        1.3467384E-17
   98.55450        1.3456779E-17
   98.71600        1.3436479E-17
   98.87750        1.3417620E-17
   99.03900        1.3410432E-17
   99.20050        1.3419354E-17
   99.36200        1.3440917E-17
   99.52350        1.3465431E-17
   99.68500        1.3481713E-17
   99.84650        1.3482582E-17
   100.0080        1.3468450E-17
   100.1695        1.3447273E-17
   100.3310        1.3430799E-17
   100.4925        1.3428913E-17
   100.6540        1.3444797E-17
   100.8155        1.3473290E-17
   100.9770        1.3503254E-17
   101.1385        1.3522857E-17
   101.3000        1.3525179E-17
   101.4615        1.3511446E-17
   101.6230        1.3490289E-17
   101.7845        1.3473426E-17
   101.9460        1.3469860E-17
   102.1075        1.3481498E-17
   102.2690        1.3502278E-17
   102.4305        1.3521275E-17
   102.5920        1.3528193E-17
   102.7535        1.3518545E-17
   102.9150        1.3495955E-17
   103.0765        1.3470468E-17
   103.2380        1.3453710E-17
   103.3995        1.3453290E-17
   103.5610        1.3469184E-17
   103.7225        1.3493833E-17
   103.8840        1.3515905E-17
   104.0455        1.3525825E-17
   104.2070        1.3520376E-17
   104.3685        1.3504146E-17
   104.5300        1.3487128E-17
   104.6915        1.3479704E-17
   104.8530        1.3487478E-17
   105.0145        1.3508519E-17
   105.1760        1.3534323E-17
   105.3375        1.3554045E-17
   105.4990        1.3559875E-17
   105.6605        1.3550890E-17
   105.8220        1.3533501E-17
   105.9835        1.3518241E-17
   106.1450        1.3514495E-17
   106.3065        1.3525791E-17
   106.4680        1.3547974E-17
   106.6295        1.3571221E-17
   106.7910        1.3584882E-17
   106.9525        1.3582771E-17
   107.1140        1.3566262E-17
   107.2755        1.3543655E-17
   107.4370        1.3526096E-17
   107.5985        1.3522122E-17
   107.7600        1.3533485E-17
   107.9215        1.3554394E-17
   108.0830        1.3574494E-17
   108.2445        1.3584109E-17
   108.4060        1.3579141E-17
   108.5675        1.3563143E-17
   108.7290        1.3545570E-17
   108.8905        1.3537056E-17
   109.0520        1.3544080E-17
   109.2135        1.3565664E-17
   109.3750        1.3593762E-17
   109.5365        1.3617137E-17
   109.6980        1.3626824E-17
   109.8595        1.3620498E-17
   110.0210        1.3603611E-17
   110.1825        1.3586723E-17
   110.3440        1.3580361E-17
   110.5055        1.3589881E-17
   110.6670        1.3612858E-17
   110.8285        1.3640265E-17
   110.9900        1.3660867E-17
   111.1515        1.3666700E-17
   111.3130        1.3656960E-17
   111.4745        1.3638414E-17
   111.6360        1.3622102E-17
   111.7975        1.3617943E-17
   111.9590        1.3629835E-17
   112.1205        1.3653654E-17
   112.2820        1.3679137E-17
   112.4435        1.3694788E-17
   112.6050        1.3693431E-17
   112.7665        1.3675728E-17
   112.9280        1.3649957E-17
   113.0895        1.3628115E-17
   113.2510        1.3620219E-17
   113.4125        1.3629557E-17
   113.5740        1.3651173E-17
   113.7355        1.3674327E-17
   113.8970        1.3687734E-17
   114.0585        1.3685040E-17
   114.2200        1.3667889E-17
   114.3815        1.3645123E-17
   114.5430        1.3628478E-17
   114.7045        1.3626901E-17
   114.8660        1.3642208E-17
   115.0275        1.3668167E-17
   115.1890        1.3693451E-17
   115.3505        1.3707015E-17
   115.5120        1.3703324E-17
   115.6735        1.3684937E-17
   115.8350        1.3661244E-17
   115.9965        1.3643975E-17
   116.1580        1.3641642E-17
   116.3195        1.3655543E-17
   116.4810        1.3679208E-17
   116.6425        1.3701524E-17
   116.8040        1.3712018E-17
   116.9655        1.3705812E-17
   117.1270        1.3685898E-17
   117.2885        1.3661679E-17
   117.4500        1.3644499E-17
   117.6115        1.3642296E-17
   117.7730        1.3655912E-17
   117.9345        1.3678777E-17
   118.0960        1.3700119E-17
   118.2575        1.3710126E-17
   118.4190        1.3704641E-17
   118.5805        1.3687129E-17
   118.7420        1.3667029E-17