  -27.90000       -2.4174267E-18
  -27.73850       -2.4218366E-18
  -27.57700       -2.4286341E-18
  -27.41550       -2.4349546E-18
  -27.25400       -2.4386174E-18
  -27.09250       -2.4392619E-18
  -26.93100       -2.4384625E-18
  -26.76950       -2.4387650E-18
  -26.60800       -2.4421807E-18
  -26.44650       -2.4489735E-18
  -26.28500       -2.4574452E-18
  -26.12350       -2.4648384E-18
  -25.96200       -2.4688705E-18
  -25.80050       -2.4690282E-18
  -25.63900       -2.4668792E-18
  -25.47750       -2.4652025E-18
  -25.31600       -2.4664359E-18
  -25.15450       -2.4713121E-18
  -24.99300       -2.4784742E-18
  -24.83150       -2.4852855E-18
  -24.67000       -2.4893535E-18
  -24.50850       -2.4898941E-18
  -24.34700       -2.4881448E-18
  -24.18550       -2.4866220E-18
  -24.02400       -2.4876584E-18
  -23.86250       -2.4920816E-18
  -23.70100       -2.4987737E-18
  -23.53950       -2.5053413E-18
  -23.37800       -2.5094869E-18
  -23.21650       -2.5102957E-18
  -23.05500       -2.5087228E-18
  -22.89350       -2.5070271E-18
  -22.73200       -2.5074994E-18
  -22.57050       -2.5111843E-18
  -22.40900       -2.5173069E-18
  -22.24750       -2.5237045E-18
  -22.08600       -2.5280321E-18
  -21.92450       -2.5290747E-18
  -21.76300       -2.5274390E-18
  -21.60150       -2.5252205E-18
  -21.44000       -2.5248265E-18
  -21.27850       -2.5275990E-18
  -21.11700       -2.5330320E-18
  -20.95550       -2.5390605E-18
  -20.79400       -2.5432646E-18
  -20.63250       -2.5443106E-18
  -20.47100       -2.5427677E-18
  -20.30950       -2.5407938E-18
  -20.14800       -2.5408662E-18
  -19.98650       -2.5443004E-18
  -19.82500       -2.5504437E-18
  -19.66350       -2.5570372E-18
  -19.50200       -2.5615147E-18
  -19.34050       -2.5624738E-18
  -19.17900       -2.5604447E-18
  -19.01750       -2.5575304E-18
  -18.85600       -2.5561695E-18
  -18.69450       -2.5577552E-18
  -18.53300       -2.5619045E-18
  -18.37150       -2.5667528E-18
  -18.21000       -2.5700630E-18
  -18.04850       -2.5705095E-18
  -17.88700       -2.5684272E-18
  -17.72550       -2.5656299E-18
  -17.56400       -2.5644204E-18
  -17.40250       -2.5663303E-18
  -17.24100       -2.5712616E-18
  -17.07950       -2.5775049E-18
  -16.91800       -2.5826283E-18
  -16.75650       -2.5847822E-18
  -16.59500       -2.5837150E-18
  -16.43350       -2.5809183E-18
  -16.27200       -2.5787976E-18
  -16.11050       -2.5792985E-18
  -15.94900       -2.5827774E-18
  -15.78750       -2.5877831E-18
  -15.62600       -2.5919134E-18
  -15.46450       -2.5932534E-18
  -15.30300       -2.5915411E-18
  -15.14150       -2.5883637E-18
  -14.98000       -2.5862588E-18
  -14.81850       -2.5872605E-18
  -14.65700       -2.5917634E-18
  -14.49550       -2.5983577E-18
  -14.33400       -2.6046995E-18
  -14.17250       -2.6088720E-18
  -14.01100       -2.6104213E-18
  -13.84950       -2.6104898E-18
  -13.68800       -2.6110351E-18
  -13.52650       -2.6136293E-18
  -13.36500       -2.6185509E-18
  -13.20350       -2.6246433E-18
  -13.04200       -2.6299786E-18
  -12.88050       -2.6329020E-18
  -12.71900       -2.6328925E-18
  -12.55750       -2.6307873E-18
  -12.39600       -2.6282793E-18
  -12.23450       -2.6269738E-18
  -12.07300       -2.6275140E-18
  -11.91150       -2.6292517E-18
  -11.75000       -2.6306519E-18
  -11.58850       -2.6302114E-18
  -11.42700       -2.6273794E-18
  -11.26550       -2.6229508E-18
  -11.10400       -2.6186789E-18
  -10.94250       -2.6163082E-18
  -10.78100       -2.6165946E-18
  -10.61950       -2.6188956E-18
  -10.45800       -2.6215912E-18
  -10.29650       -2.6231014E-18
  -10.13500       -2.6228729E-18
  -9.973500       -2.6217206E-18
  -9.812000       -2.6213182E-18
  -9.650500       -2.6231454E-18
  -9.489000       -2.6275572E-18
  -9.327500       -2.6335414E-18
  -9.166000       -2.6393108E-18
  -9.004500       -2.6433359E-18
  -8.843000       -2.6451975E-18
  -8.681500       -2.6457568E-18
  -8.520000       -2.6465807E-18
  -8.358500       -2.6489828E-18
  -8.197000       -2.6532546E-18
  -8.035500       -2.6585111E-18
  -7.874000       -2.6632070E-18
  -7.712500       -2.6660106E-18
  -7.551000       -2.6665315E-18
  -7.389500       -2.6655205E-18
  -7.228000       -2.6644486E-18
  -7.066500       -2.6647104E-18
  -6.905000       -2.6668739E-18
  -6.743500       -2.6703793E-18
  -6.582000       -2.6738479E-18
  -6.420500       -2.6758391E-18
  -6.259000       -2.6756588E-18
  -6.097500       -2.6737633E-18
  -5.936000       -2.6715206E-18
  -5.774500       -2.6704405E-18
  -5.613000       -2.6713037E-18
  -5.451500       -2.6737112E-18
  -5.290000       -2.6763259E-18
  -5.128500       -2.6776889E-18
  -4.967000       -2.6771341E-18
  -4.805500       -2.6752440E-18
  -4.644000       -2.6735584E-18
  -4.482500       -2.6737015E-18
  -4.321000       -2.6764297E-18
  -4.159500       -2.6811930E-18
  -3.998000       -2.6864552E-18
  -3.836500       -2.6905929E-18
  -3.675000       -2.6928122E-18
  -3.513500       -2.6935387E-18
  -3.352000       -2.6940675E-18
  -3.190500       -2.6957123E-18
  -3.029000       -2.6989733E-18
  -2.867500       -2.7032271E-18
  -2.706000       -2.7071028E-18
  -2.544500       -2.7092967E-18
  -2.383000       -2.7093484E-18
  -2.221500       -2.7079188E-18
  -2.060000       -2.7064239E-18
  -1.898500       -2.7062347E-18
  -1.737000       -2.7079168E-18
  -1.575500       -2.7109263E-18
  -1.414000       -2.7139391E-18
  -1.252500       -2.7156218E-18
  -1.091000       -2.7154127E-18
 -0.9295000       -2.7138799E-18
 -0.7680000       -2.7124499E-18
 -0.6065000       -2.7126346E-18
 -0.4450000       -2.7151788E-18
 -0.2835000       -2.7196044E-18
 -0.1220000       -2.7244306E-18
  3.9500002E-02   -2.7279726E-18
  0.2010000       -2.7292870E-18
  0.3625000       -2.7287206E-18
  0.5240000       -2.7277168E-18
  0.6855000       -2.7279713E-18
  0.8470000       -2.7304068E-18
   1.008500       -2.7345644E-18
   1.170000       -2.7387958E-18
   1.331500       -2.7411657E-18
   1.493000       -2.7405637E-18
   1.654500       -2.7373756E-18
   1.816000       -2.7333025E-18
   1.977500       -2.7304204E-18
   2.139000       -2.7300201E-18
   2.300500       -2.7319125E-18
   2.462000       -2.7345904E-18
   2.623500       -2.7361611E-18
   2.785000       -2.7354764E-18
   2.946500       -2.7328174E-18
   3.108000       -2.7297386E-18
   3.269500       -2.7281763E-18
   3.431000       -2.7293459E-18
   3.592500       -2.7330504E-18
   3.754000       -2.7377867E-18
   3.915500       -2.7415741E-18
   4.077000       -2.7430355E-18
   4.238500       -2.7421192E-18
   4.400000       -2.7400780E-18
   4.561500       -2.7387288E-18
   4.723000       -2.7394255E-18
   4.884500       -2.7423058E-18
   5.046000       -2.7462450E-18
   5.207500       -2.7495217E-18
   5.369000       -2.7508365E-18
   5.530500       -2.7500968E-18
   5.692000       -2.7485138E-18
   5.853500       -2.7479298E-18
   6.015000       -2.7497500E-18
   6.176500       -2.7540978E-18
   6.338000       -2.7597076E-18
   6.499500       -2.7646386E-18
   6.661000       -2.7674095E-18
   6.822500       -2.7678849E-18
   6.984000       -2.7673795E-18
   7.145500       -2.7678898E-18
   7.307000       -2.7708981E-18
   7.468500       -2.7764481E-18
   7.630000       -2.7830556E-18
   7.791500       -2.7885208E-18
   7.953000       -2.7911762E-18
   8.114500       -2.7908290E-18
   8.276000       -2.7888471E-18
   8.437500       -2.7873509E-18
   8.599000       -2.7879763E-18
   8.760500       -2.7909365E-18
   8.922000       -2.7949153E-18
   9.083500       -2.7978406E-18
   9.245000       -2.7981037E-18
   9.406500       -2.7955241E-18
   9.568000       -2.7915218E-18
   9.729500       -2.7883835E-18
   9.891000       -2.7880284E-18
   10.05250       -2.7909487E-18
   10.21400       -2.7959120E-18
   10.37550       -2.8006055E-18
   10.53700       -2.8028711E-18
   10.69850       -2.8018717E-18
   10.86000       -2.7985454E-18
   11.02150       -2.7950857E-18
   11.18300       -2.7937233E-18
   11.34450       -2.7954802E-18
   11.50600       -2.7995858E-18
   11.66750       -2.8038993E-18
   11.82900       -2.8061205E-18
   11.99050       -2.8050983E-18
   12.15200       -2.8015056E-18
   12.31350       -2.7974903E-18
   12.47500       -2.7954974E-18
   12.63650       -2.7969311E-18
   12.79800       -2.8014161E-18
   12.95950       -2.8070579E-18
   13.12100       -2.8115526E-18
   13.28250       -2.8134921E-18
   13.44400       -2.8131339E-18
   13.60550       -2.8122058E-18
   13.76700       -2.8128841E-18
   13.92850       -2.8165376E-18
   14.09000       -2.8229513E-18
   14.25150       -2.8304526E-18
   14.41300       -2.8368234E-18
   14.57450       -2.8404874E-18
   14.73600       -2.8412988E-18
   14.89750       -2.8405206E-18
   15.05900       -2.8400403E-18
   15.22050       -2.8412692E-18
   15.38200       -2.8443430E-18
   15.54350       -2.8480544E-18
   15.70500       -2.8505448E-18
   15.86650       -2.8503546E-18
   16.02800       -2.8472562E-18
   16.18950       -2.8424066E-18
   16.35100       -2.8377430E-18
   16.51250       -2.8349543E-18
   16.67400       -2.8346009E-18
   16.83550       -2.8358717E-18
   16.99700       -2.8371145E-18
   17.15850       -2.8368492E-18
   17.32000       -2.8346764E-18
   17.48150       -2.8315646E-18
   17.64300       -2.8293274E-18
   17.80450       -2.8295845E-18
   17.96600       -2.8328064E-18
   18.12750       -2.8379920E-18
   18.28900       -2.8431825E-18
   18.45050       -2.8465262E-18
   18.61200       -2.8472926E-18
   18.77350       -2.8462578E-18
   18.93500       -2.8452488E-18
   19.09650       -2.8460940E-18
   19.25800       -2.8495849E-18
   19.41950       -2.8550219E-18
   19.58100       -2.8606071E-18
   19.74250       -2.8644473E-18
   19.90400       -2.8655981E-18
   20.06550       -2.8645697E-18
   20.22700       -2.8630158E-18
   20.38850       -2.8627873E-18
   20.55000       -2.8648915E-18
   20.71150       -2.8689238E-18
   20.87300       -2.8732818E-18
   21.03450       -2.8760470E-18
   21.19600       -2.8760296E-18
   21.35750       -2.8734147E-18
   21.51900       -2.8696579E-18
   21.68050       -2.8667009E-18
   21.84200       -2.8659463E-18
   22.00350       -2.8675510E-18
   22.16500       -2.8704108E-18
   22.32650       -2.8728210E-18
   22.48800       -2.8734451E-18
   22.64950       -2.8720687E-18
   22.81100       -2.8697321E-18
   22.97250       -2.8681828E-18
   23.13400       -2.8689362E-18
   23.29550       -2.8724591E-18
   23.45700       -2.8779005E-18
   23.61850       -2.8835336E-18
   23.78000       -2.8876575E-18
   23.94150       -2.8894866E-18
   24.10300       -2.8895356E-18
   24.26450       -2.8892792E-18
   24.42600       -2.8902807E-18
   24.58750       -2.8932656E-18
   24.74900       -2.8976718E-18
   24.91050       -2.9019549E-18
   25.07200       -2.9044716E-18
   25.23350       -2.9044377E-18
   25.39500       -2.9023979E-18
   25.55650       -2.8999201E-18
   25.71800       -2.8987097E-18
   25.87950       -2.8996593E-18
   26.04100       -2.9023894E-18
   26.20250       -2.9055344E-18
   26.36400       -2.9075804E-18
   26.52550       -2.9077702E-18
   26.68700       -2.9065522E-18
   26.84850       -2.9053449E-18
   27.01000       -2.9057649E-18
   27.17150       -2.9087533E-18
   27.33300       -2.9140651E-18
   27.49450       -2.9203893E-18
   27.65600       -2.9260023E-18
   27.81750       -2.9296188E-18
   27.97900       -2.9310001E-18
   28.14050       -2.9310024E-18
   28.30200       -2.9310376E-18
   28.46350       -2.9322178E-18
   28.62500       -2.9346408E-18
   28.78650       -2.9372336E-18
   28.94800       -2.9382789E-18
   29.10950       -2.9363710E-18
   29.27100       -2.9312700E-18
   29.43250       -2.9241529E-18
   29.59400       -2.9170735E-18
   29.75550       -2.9119225E-18
   29.91700       -2.9094736E-18
   30.07850       -2.9090656E-18
   30.24000       -2.9091049E-18
   30.40150       -2.9080788E-18
   30.56300       -2.9054793E-18
   30.72450       -2.9021040E-18
   30.88600       -2.8995890E-18
   31.04750       -2.8994742E-18
   31.20900       -2.9023555E-18
   31.37050       -2.9075856E-18
   31.53200       -2.9136463E-18
   31.69350       -2.9189407E-18
   31.85500       -2.9225689E-18
   32.01650       -2.9246970E-18
   32.17800       -2.9263683E-18
   32.33950       -2.9288834E-18
   32.50100       -2.9330706E-18
   32.66250       -2.9388197E-18
   32.82400       -2.9450974E-18
   32.98550       -2.9504604E-18
   33.14700       -2.9538022E-18
   33.30850       -2.9549394E-18
   33.47000       -2.9547034E-18
   33.63150       -2.9544580E-18
   33.79300       -2.9553019E-18
   33.95450       -2.9574031E-18
   34.11600       -2.9598927E-18
   34.27750       -2.9613908E-18
   34.43900       -2.9608676E-18
   34.60050       -2.9583105E-18
   34.76200       -2.9547729E-18
   34.92350       -2.9517704E-18
   35.08500       -2.9504070E-18
   35.24650       -2.9507679E-18
   35.40800       -2.9519518E-18
   35.56950       -2.9526948E-18
   35.73100       -2.9521857E-18
   35.89250       -2.9505654E-18
   36.05400       -2.9488315E-18
   36.21550       -2.9482380E-18
   36.37700       -2.9495662E-18
   36.53850       -2.9526882E-18
   36.70000       -2.9566556E-18
   36.86150       -2.9602265E-18
   37.02300       -2.9625347E-18
   37.18450       -2.9635311E-18
   37.34600       -2.9639817E-18
   37.50750       -2.9650241E-18
   37.66900       -2.9675191E-18
   37.83050       -2.9715326E-18
   37.99200       -2.9762174E-18
   38.15350       -2.9801934E-18
   38.31500       -2.9822378E-18
   38.47650       -2.9819321E-18
   38.63800       -2.9799105E-18
   38.79950       -2.9775363E-18
   38.96100       -2.9761758E-18
   39.12250       -2.9764591E-18
   39.28400       -2.9779633E-18
   39.44550       -2.9795089E-18
   39.60700       -2.9799006E-18
   39.76850       -2.9786873E-18
   39.93000       -2.9764889E-18
   40.09150       -2.9746947E-18
   40.25300       -2.9747129E-18
   40.41450       -2.9772040E-18
   40.57600       -2.9817293E-18
   40.73750       -2.9870061E-18
   40.89900       -2.9916013E-18
   41.06050       -2.9946600E-18
   41.22200       -2.9962659E-18
   41.38350       -2.9972503E-18
   41.54500       -2.9985961E-18
   41.70650       -3.0008005E-18
   41.86800       -3.0035557E-18
   42.02950       -3.0059202E-18
   42.19100       -3.0068510E-18
   42.35250       -3.0057738E-18
   42.51400       -3.0028704E-18
   42.67550       -2.9989410E-18
   42.83700       -2.9949449E-18
   42.99850       -2.9915221E-18
   43.16000       -2.9887719E-18
   43.32150       -2.9863915E-18
   43.48300       -2.9840530E-18
   43.64450       -2.9817520E-18
   43.80600       -2.9799053E-18
   43.96750       -2.9791503E-18
   44.12900       -2.9799852E-18
   44.29050       -2.9824650E-18
   44.45200       -2.9861481E-18
   44.61350       -2.9903115E-18
   44.77500       -2.9943179E-18
   44.93650       -2.9979228E-18
   45.09800       -3.0013527E-18
   45.25950       -3.0051044E-18
   45.42100       -3.0095687E-18
   45.58250       -3.0146895E-18
   45.74400       -3.0198671E-18
   45.90550       -3.0241882E-18
   46.06700       -3.0268908E-18
   46.22850       -3.0278132E-18
   46.39000       -3.0275358E-18
   46.55150       -3.0270985E-18
   46.71300       -3.0273888E-18
   46.87450       -3.0285711E-18
   47.03600       -3.0299055E-18
   47.19750       -3.0301353E-18
   47.35900       -3.0282356E-18
   47.52050       -3.0240929E-18
   47.68200       -3.0186823E-18
   47.84350       -3.0136127E-18
   48.00500       -3.0102906E-18
   48.16650       -3.0091933E-18
   48.32800       -3.0096778E-18
   48.48950       -3.0104238E-18
   48.65100       -3.0102352E-18
   48.81250       -3.0087326E-18
   48.97400       -3.0065486E-18
   49.13550       -3.0049486E-18
   49.29700       -3.0051151E-18
   49.45850       -3.0074999E-18
   49.62000       -3.0115830E-18
   49.78150       -3.0161369E-18
   49.94300       -3.0198379E-18
   50.10450       -3.0219183E-18
   50.26600       -3.0225362E-18
   50.42750       -3.0226768E-18
   50.58900       -3.0236284E-18
   50.75050       -3.0262833E-18
   50.91200       -3.0306386E-18
   51.07350       -3.0357737E-18
   51.23500       -3.0403559E-18
   51.39650       -3.0433811E-18
   51.55800       -3.0447321E-18
   51.71950       -3.0452003E-18
   51.88100       -3.0459255E-18
   52.04250       -3.0476080E-18
   52.20400       -3.0499946E-18
   52.36550       -3.0519879E-18
   52.52700       -3.0523564E-18
   52.68850       -3.0505759E-18
   52.85000       -3.0472726E-18
   53.01150       -3.0439374E-18
   53.17300       -3.0420934E-18
   53.33450       -3.0424315E-18
   53.49600       -3.0444753E-18
   53.65750       -3.0469694E-18
   53.81900       -3.0487280E-18
   53.98050       -3.0493914E-18
   54.14200       -3.0496154E-18
   54.30350       -3.0505890E-18
   54.46500       -3.0531975E-18
   54.62650       -3.0573514E-18
   54.78800       -3.0618951E-18
   54.94950       -3.0651558E-18
   55.11100       -3.0658233E-18
   55.27250       -3.0636772E-18
   55.43400       -3.0597603E-18
   55.59550       -3.0558961E-18
   55.75700       -3.0537792E-18
   55.91850       -3.0540830E-18
   56.08000       -3.0560624E-18
   56.24150       -3.0578913E-18
   56.40300       -3.0576365E-18
   56.56450       -3.0543967E-18
   56.72600       -3.0489700E-18
   56.88750       -3.0436055E-18
   57.04900       -3.0408750E-18
   57.21050       -3.0422268E-18
   57.37200       -3.0470784E-18
   57.53350       -3.0530438E-18
   57.69500       -3.0572631E-18
   57.85650       -3.0581128E-18
   58.01800       -3.0562603E-18
   58.17950       -3.0543696E-18
   58.34100       -3.0555531E-18
   58.50250       -3.0614635E-18
   58.66400       -3.0711733E-18
   58.82550       -3.0815509E-18
   58.98700       -3.0889300E-18
   59.14850       -3.0910981E-18
   59.31000       -3.0884329E-18
   59.47150       -3.0835711E-18
   59.63300       -3.0798281E-18
   59.79450       -3.0793221E-18
   59.95600       -3.0818514E-18
   60.11750       -3.0851144E-18
   60.27900       -3.0860905E-18
   60.44050       -3.0827923E-18
   60.60200       -3.0754366E-18
   60.76350       -3.0664239E-18
   60.92500       -3.0591515E-18
   61.08650       -3.0562835E-18
   61.24800       -3.0583676E-18
   61.40950       -3.0635443E-18
   61.57100       -3.0685257E-18
   61.73250       -3.0703644E-18
   61.89400       -3.0680799E-18
   62.05550       -3.0632394E-18
   62.21700       -3.0591042E-18
   62.37850       -3.0587720E-18
   62.54000       -3.0633459E-18
   62.70150       -3.0712195E-18
   62.86300       -3.0789354E-18
   63.02450       -3.0831693E-18
   63.18600       -3.0826774E-18
   63.34750       -3.0790467E-18
   63.50900       -3.0757812E-18
   63.67050       -3.0762415E-18
   63.83200       -3.0816543E-18
   63.99350       -3.0903681E-18
   64.15500       -3.0987735E-18
   64.31650       -3.1033517E-18
   64.47800       -3.1026521E-18
   64.63950       -3.0980590E-18
   64.80100       -3.0929439E-18
   64.96250       -3.0907165E-18
   65.12400       -3.0928966E-18
   65.28550       -3.0982865E-18
   65.44700       -3.1036871E-18
   65.60850       -3.1057234E-18
   65.77000       -3.1027590E-18
   65.93150       -3.0958355E-18
   66.09300       -3.0881210E-18
   66.25450       -3.0831832E-18
   66.41600       -3.0830335E-18
   66.57750       -3.0870405E-18
   66.73900       -3.0923231E-18
   66.90050       -3.0954170E-18
   67.06200       -3.0942937E-18
   67.22350       -3.0895837E-18
   67.38500       -3.0842933E-18
   67.54650       -3.0821376E-18
   67.70800       -3.0854137E-18
   67.86950       -3.0936160E-18
   68.03100       -3.1036046E-18
   68.19250       -3.1112786E-18
   68.35400       -3.1138329E-18
   68.51550       -3.1113086E-18
   68.67700       -3.1065229E-18
   68.83850       -3.1033945E-18
   69.00000       -3.1046129E-18
   69.16150       -3.1100171E-18
   69.32300       -3.1166486E-18
   69.48450       -3.1204692E-18
   69.64600       -3.1187519E-18
   69.80750       -3.1117406E-18
   69.96900       -3.1025866E-18
   70.13050       -3.0955996E-18
   70.29200       -3.0938288E-18
   70.45350       -3.0973921E-18
   70.61500       -3.1035107E-18
   70.77650       -3.1082013E-18
   70.93800       -3.1086159E-18
   71.09950       -3.1046845E-18
   71.26100       -3.0991482E-18
   71.42250       -3.0960072E-18
   71.58400       -3.0982753E-18
   71.74550       -3.1062772E-18
   71.90700       -3.1173987E-18
   72.06850       -3.1274090E-18
   72.23000       -3.1326581E-18
   72.39150       -3.1319860E-18
   72.55300       -3.1273151E-18
   72.71450       -3.1225710E-18
   72.87600       -3.1214634E-18
   73.03750       -3.1253109E-18
   73.19900       -3.1321504E-18
   73.36050       -3.1377295E-18
   73.52200       -3.1379171E-18
   73.68350       -3.1312132E-18
   73.84500       -3.1198637E-18
   74.00650       -3.1088150E-18
   74.16800       -3.1030254E-18
   74.32950       -3.1046630E-18
   74.49100       -3.1118806E-18
   74.65250       -3.1199356E-18
   74.81400       -3.1240143E-18
   74.97550       -3.1220545E-18
   75.13700       -3.1158785E-18
   75.29850       -3.1100012E-18
   75.46000       -3.1088843E-18
   75.62150       -3.1143087E-18
   75.78300       -3.1243776E-18
   75.94450       -3.1346303E-18
   76.10600       -3.1405366E-18
   76.26750       -3.1399135E-18
   76.42900       -3.1339690E-18
   76.59050       -3.1265128E-18
   76.75200       -3.1218657E-18
   76.91350       -3.1226039E-18
   77.07500       -3.1282840E-18
   77.23650       -3.1357358E-18
   77.39800       -3.1407562E-18
   77.55950       -3.1403492E-18
   77.72100       -3.1343749E-18
   77.88250       -3.1257162E-18
   78.04400       -3.1187863E-18
   78.20550       -3.1171098E-18
   78.36700       -3.1212976E-18
   78.52850       -3.1286287E-18
   78.69000       -3.1345734E-18
   78.85150       -3.1354455E-18
   79.01300       -3.1306152E-18
   79.17450       -3.1229311E-18
   79.33600       -3.1170558E-18
   79.49750       -3.1166993E-18
   79.65900       -3.1224381E-18
   79.82050       -3.1314330E-18
   79.98200       -3.1391903E-18
   80.14350       -3.1422248E-18
   80.30500       -3.1400092E-18
   80.46650       -3.1350861E-18
   80.62800       -3.1313973E-18
   80.78950       -3.1319496E-18
   80.95100       -3.1371952E-18
   81.11250       -3.1449715E-18
   81.27400       -3.1518723E-18
   81.43550       -3.1551659E-18
   81.59700       -3.1541956E-18
   81.75850       -3.1505916E-18
   81.92000       -3.1472833E-18
   82.08150       -3.1468837E-18
   82.24300       -3.1502777E-18
   82.40450       -3.1561124E-18
   82.56600       -3.1614591E-18
   82.72750       -3.1633268E-18
   82.88900       -3.1602882E-18
   83.05050       -3.1533386E-18
   83.21200       -3.1454695E-18
   83.37350       -3.1400953E-18
   83.53500       -3.1391651E-18
   83.69650       -3.1420544E-18
   83.85800       -3.1459496E-18
   84.01950       -3.1475711E-18
   84.18100       -3.1452333E-18
   84.34250       -3.1399722E-18
   84.50400       -3.1350164E-18
   84.66550       -3.1338922E-18
   84.82700       -3.1383177E-18
   84.98850       -3.1471555E-18
   85.15000       -3.1570297E-18
   85.31150       -3.1642043E-18
   85.47300       -3.1665880E-18
   85.63450       -3.1647194E-18
   85.79600       -3.1612514E-18
   85.95750       -3.1593258E-18
   86.11900       -3.1608130E-18
   86.28050       -3.1653692E-18
   86.44200       -3.1707218E-18
   86.60350       -3.1739414E-18
   86.76500       -3.1729821E-18
   86.92650       -3.1677326E-18
   87.08800       -3.1601219E-18
   87.24950       -3.1532247E-18
   87.41100       -3.1497865E-18
   87.57250       -3.1508552E-18
   87.73400       -3.1552122E-18
   87.89550       -3.1599749E-18
   88.05700       -3.1621231E-18
   88.21850       -3.1601898E-18
   88.38000       -3.1551456E-18
   88.54150       -3.1499185E-18
   88.70300       -3.1477533E-18
   88.86450       -3.1503254E-18
   89.02600       -3.1567274E-18
   89.18750       -3.1639491E-18
   89.34900       -3.1685954E-18
   89.51050       -3.1687931E-18
   89.67200       -3.1651650E-18
   89.83350       -3.1603225E-18
   89.99500       -3.1572551E-18
   90.15650       -3.1576433E-18
   90.31800       -3.1610653E-18
   90.47950       -3.1654428E-18
   90.64100       -3.1683207E-18
   90.80250       -3.1681859E-18
   90.96400       -3.1651475E-18
   91.12550       -3.1607496E-18
   91.28700       -3.1571445E-18
   91.44850       -3.1560721E-18
   91.61000       -3.1581036E-18
   91.77150       -3.1624294E-18
   91.93300       -3.1672498E-18
   92.09450       -3.1706240E-18
   92.25600       -3.1714210E-18
   92.41750       -3.1699308E-18
   92.57900       -3.1677574E-18
   92.74050       -3.1669609E-18
   92.90200       -3.1688452E-18
   93.06350       -3.1730901E-18
   93.22500       -3.1778224E-18
   93.38650       -3.1806722E-18
   93.54800       -3.1802092E-18
   93.70950       -3.1768562E-18
   93.87100       -3.1726701E-18
   94.03250       -3.1701170E-18
   94.19400       -3.1706197E-18
   94.35550       -3.1737845E-18
   94.51700       -3.1777500E-18
   94.67850       -3.1803837E-18
   94.84000       -3.1805485E-18
   95.00150       -3.1786878E-18
   95.16300       -3.1764356E-18
   95.32450       -3.1755821E-18
   95.48600       -3.1770452E-18
   95.64750       -3.1804069E-18
   95.80900       -3.1841966E-18
   95.97050       -3.1866744E-18
   96.13200       -3.1866798E-18
   96.29350       -3.1841780E-18
   96.45500       -3.1802861E-18
   96.61650       -3.1767896E-18
   96.77800       -3.1753081E-18
   96.93950       -3.1764712E-18
   97.10100       -3.1795266E-18
   97.26250       -3.1826707E-18
   97.42400       -3.1840237E-18
   97.58550       -3.1827660E-18
   97.74700       -3.1797478E-18
   97.90850       -3.1771391E-18
   98.07000       -3.1772320E-18
   98.23150       -3.1810494E-18
   98.39300       -3.1876125E-18
   98.55450       -3.1943672E-18
   98.71600       -3.1985827E-18
   98.87750       -3.1989004E-18
   99.03900       -3.1961018E-18
   99.20050       -3.1926061E-18
   99.36200       -3.1910056E-18
   99.52350       -3.1925416E-18
   99.68500       -3.1964124E-18
   99.84650       -3.2002818E-18
   100.0080       -3.2016439E-18
   100.1695       -3.1992395E-18
   100.3310       -3.1937601E-18
   100.4925       -3.1874867E-18
   100.6540       -3.1830958E-18
   100.8155       -3.1822596E-18
   100.9770       -3.1847800E-18
   101.1385       -3.1887029E-18
   101.3000       -3.1913670E-18
   101.4615       -3.1908560E-18
   101.6230       -3.1870884E-18
   101.7845       -3.1819479E-18
   101.9460       -3.1783249E-18
   102.1075       -3.1785188E-18
   102.2690       -3.1828706E-18
   102.4305       -3.1894279E-18
   102.5920       -3.1949500E-18
   102.7535       -3.1967493E-18
   102.9150       -3.1942940E-18
   103.0765       -3.1895768E-18
   103.2380       -3.1859502E-18
   103.3995       -3.1861014E-18
   103.5610       -3.1903938E-18
   103.7225       -3.1965923E-18
   103.8840       -3.2011673E-18
   104.0455       -3.2013935E-18
   104.2070       -3.1970005E-18
   104.3685       -3.1903910E-18
   104.5300       -3.1853075E-18
   104.6915       -3.1847335E-18
   104.8530       -3.1892432E-18
   105.0145       -3.1967296E-18
   105.1760       -3.2036101E-18
   105.3375       -3.2068008E-18
   105.4990       -3.2053600E-18
   105.6605       -3.2009574E-18
   105.8220       -3.1969290E-18
   105.9835       -3.1964302E-18
   106.1450       -3.2006370E-18
   106.3065       -3.2079681E-18
   106.4680       -3.2148062E-18
   106.6295       -3.2174315E-18
   106.7910       -3.2141418E-18
   106.9525       -3.2063593E-18
   107.1140       -3.1979940E-18
   107.2755       -3.1933277E-18
   107.4370       -3.1945798E-18
   107.5985       -3.2005874E-18
   107.7600       -3.2074396E-18
   107.9215       -3.2107634E-18
   108.0830       -3.2083348E-18
   108.2445       -3.2014382E-18
   108.4060       -3.1941230E-18
   108.5675       -3.1907793E-18
   108.7290       -3.1935311E-18
   108.8905       -3.2010070E-18
   109.0520       -3.2092116E-18
   109.2135       -3.2139009E-18
   109.3750       -3.2130191E-18
   109.5365       -3.2077781E-18
   109.6980       -3.2018420E-18
   109.8595       -3.1991675E-18
   110.0210       -3.2017599E-18
   110.1825       -3.2086022E-18
   110.3440       -3.2162935E-18
   110.5055       -3.2210064E-18
   110.6670       -3.2206323E-18
   110.8285       -3.2159378E-18
   110.9900       -3.2100770E-18
   111.1515       -3.2067408E-18
   111.3130       -3.2079869E-18
   111.4745       -3.2129949E-18
   111.6360       -3.2185122E-18
   111.7975       -3.2207894E-18
   111.9590       -3.2179075E-18
   112.1205       -3.2110779E-18
   112.2820       -3.2040477E-18
   112.4435       -3.2008835E-18
   112.6050       -3.2034679E-18
   112.7665       -3.2102875E-18
   112.9280       -3.2173142E-18
   113.0895       -3.2204581E-18
   113.2510       -3.2180744E-18
   113.4125       -3.2119580E-18
   113.5740       -3.2062240E-18
   113.7355       -3.2047669E-18
   113.8970       -3.2088735E-18
   114.0585       -3.2164325E-18
   114.2200       -3.2231914E-18
   114.3815       -3.2252837E-18
   114.5430       -3.2215128E-18
   114.7045       -3.2140630E-18
   114.8660       -3.2072615E-18
   115.0275       -3.2051386E-18
   115.1890       -3.2091620E-18
   115.3505       -3.2173994E-18
   115.5120       -3.2255544E-18
   115.6735       -3.2293270E-18
   115.8350       -3.2268208E-18
   115.9965       -3.2196672E-18
   116.1580       -3.2121803E-18
   116.3195       -3.2089506E-18
   116.4810       -3.2121830E-18
   116.6425       -3.2203372E-18
   116.8040       -3.2289132E-18
   116.9655       -3.2330044E-18
   117.1270       -3.2301521E-18
   117.2885       -3.2218220E-18
   117.4500       -3.2125931E-18
   117.6115       -3.2075093E-18
   117.7730       -3.2091597E-18
   117.9345       -3.2162250E-18
   118.0960       -3.2243453E-18
   118.2575       -3.2287494E-18
   118.4190       -3.2270460E-18
   118.5805       -3.2205088E-18
   118.7420       -3.2131715E-18