  -27.90000        8.7879892E-18
  -27.73850        8.8153068E-18
  -27.57700        8.8573086E-18
  -27.41550        8.8961852E-18
  -27.25400        8.9185241E-18
  -27.09250        8.9222919E-18
  -26.93100        8.9173925E-18
  -26.76950        8.9195373E-18
  -26.60800        8.9409117E-18
  -26.44650        8.9829085E-18
  -26.28500        9.0350242E-18
  -26.12350        9.0805290E-18
  -25.96200        9.1057258E-18
  -25.80050        9.1075869E-18
  -25.63900        9.0954745E-18
  -25.47750        9.0859752E-18
  -25.31600        9.0937333E-18
  -25.15450        9.1234274E-18
  -24.99300        9.1673491E-18
  -24.83150        9.2099083E-18
  -24.67000        9.2364824E-18
  -24.50850        9.2416274E-18
  -24.34700        9.2320338E-18
  -24.18550        9.2226163E-18
  -24.02400        9.2280013E-18
  -23.86250        9.2542361E-18
  -23.70100        9.2954256E-18
  -23.53950        9.3371370E-18
  -23.37800        9.3646201E-18
  -23.21650        9.3711556E-18
  -23.05500        9.3618002E-18
  -22.89350        9.3504488E-18
  -22.73200        9.3519030E-18
  -22.57050        9.3734784E-18
  -22.40900        9.4108950E-18
  -22.24750        9.4507643E-18
  -22.08600        9.4782110E-18
  -21.92450        9.4852809E-18
  -21.76300        9.4753713E-18
  -21.60150        9.4612000E-18
  -21.44000        9.4575240E-18
  -21.27850        9.4727946E-18
  -21.11700        9.5044707E-18
  -20.95550        9.5406540E-18
  -20.79400        9.5670229E-18
  -20.63250        9.5751061E-18
  -20.47100        9.5671437E-18
  -20.30950        9.5547773E-18
  -20.14800        9.5523520E-18
  -19.98650        9.5686491E-18
  -19.82500        9.6017951E-18
  -19.66350        9.6402276E-18
  -19.50200        9.6691491E-18
  -19.34050        9.6788230E-18
  -19.17900        9.6699829E-18
  -19.01750        9.6533334E-18
  -18.85600        9.6434494E-18
  -18.69450        9.6505640E-18
  -18.53300        9.6749005E-18
  -18.37150        9.7067337E-18
  -18.21000        9.7321141E-18
  -18.04850        9.7409641E-18
  -17.88700        9.7329421E-18
  -17.72550        9.7177360E-18
  -17.56400        9.7096404E-18
  -17.40250        9.7194557E-18
  -17.24100        9.7482904E-18
  -17.07950        9.7867527E-18
  -16.91800        9.8199813E-18
  -16.75650        9.8357218E-18
  -16.59500        9.8309233E-18
  -16.43350        9.8131910E-18
  -16.27200        9.7963447E-18
  -16.11050        9.7925851E-18
  -15.94900        9.8057117E-18
  -15.78750        9.8291664E-18
  -15.62600        9.8499832E-18
  -15.46450        9.8563748E-18
  -15.30300        9.8446793E-18
  -15.14150        9.8217581E-18
  -14.98000        9.8014988E-18
  -14.81850        9.7973869E-18
  -14.65700        9.8152929E-18
  -14.49550        9.8504671E-18
  -14.33400        9.8903554E-18
  -14.17250        9.9216063E-18
  -14.01100        9.9373211E-18
  -13.84950        9.9405322E-18
  -13.68800        9.9420691E-18
  -13.52650        9.9540847E-18
  -13.36500        9.9829409E-18
  -13.20350        1.0025403E-17
  -13.04200        1.0070229E-17
  -12.88050        1.0104206E-17
  -12.71900        1.0119234E-17
  -12.55750        1.0116532E-17
  -12.39600        1.0105699E-17
  -12.23450        1.0099223E-17
  -12.07300        1.0105556E-17
  -11.91150        1.0124590E-17
  -11.75000        1.0147990E-17
  -11.58850        1.0164089E-17
  -11.42700        1.0164568E-17
  -11.26550        1.0149158E-17
  -11.10400        1.0125807E-17
  -10.94250        1.0106274E-17
  -10.78100        1.0099697E-17
  -10.61950        1.0107716E-17
  -10.45800        1.0123871E-17
  -10.29650        1.0137493E-17
  -10.13500        1.0139852E-17
  -9.973500        1.0129071E-17
  -9.812000        1.0111097E-17
  -9.650500        1.0096264E-17
  -9.489000        1.0093429E-17
  -9.327500        1.0105025E-17
  -9.166000        1.0125750E-17
  -9.004500        1.0145587E-17
  -8.843000        1.0155402E-17
  -8.681500        1.0151963E-17
  -8.520000        1.0139611E-17
  -8.358500        1.0127707E-17
  -8.197000        1.0125348E-17
  -8.035500        1.0136363E-17
  -7.874000        1.0157354E-17
  -7.712500        1.0179842E-17
  -7.551000        1.0195262E-17
  -7.389500        1.0199934E-17
  -7.228000        1.0197244E-17
  -7.066500        1.0195767E-17
  -6.905000        1.0204421E-17
  -6.743500        1.0227382E-17
  -6.582000        1.0261609E-17
  -6.420500        1.0298390E-17
  -6.259000        1.0328018E-17
  -6.097500        1.0344990E-17
  -5.936000        1.0350815E-17
  -5.774500        1.0352904E-17
  -5.613000        1.0360189E-17
  -5.451500        1.0377986E-17
  -5.290000        1.0404987E-17
  -5.128500        1.0434069E-17
  -4.967000        1.0456436E-17
  -4.805500        1.0466751E-17
  -4.644000        1.0466303E-17
  -4.482500        1.0462455E-17
  -4.321000        1.0464627E-17
  -4.159500        1.0479084E-17
  -3.998000        1.0505440E-17
  -3.836500        1.0536812E-17
  -3.675000        1.0563537E-17
  -3.513500        1.0578362E-17
  -3.352000        1.0580222E-17
  -3.190500        1.0574544E-17
  -3.029000        1.0569950E-17
  -2.867500        1.0573266E-17
  -2.706000        1.0585650E-17
  -2.544500        1.0602006E-17
  -2.383000        1.0613978E-17
  -2.221500        1.0614799E-17
  -2.060000        1.0603282E-17
  -1.898500        1.0584706E-17
  -1.737000        1.0568131E-17
  -1.575500        1.0561637E-17
  -1.414000        1.0568111E-17
  -1.252500        1.0583898E-17
  -1.091000        1.0601002E-17
 -0.9295000        1.0611601E-17
 -0.7680000        1.0612352E-17
 -0.6065000        1.0606140E-17
 -0.4450000        1.0600348E-17
 -0.2835000        1.0602633E-17
 -0.1220000        1.0616599E-17
  3.9500002E-02    1.0639726E-17
  0.2010000        1.0664697E-17
  0.3625000        1.0683369E-17
  0.5240000        1.0691145E-17
  0.6855000        1.0689347E-17
  0.8470000        1.0684280E-17
   1.008500        1.0683528E-17
   1.170000        1.0691587E-17
   1.331500        1.0707252E-17
   1.493000        1.0724245E-17
   1.654500        1.0734673E-17
   1.816000        1.0733410E-17
   1.977500        1.0720943E-17
   2.139000        1.0703149E-17
   2.300500        1.0688155E-17
   2.462000        1.0682068E-17
   2.623500        1.0685926E-17
   2.785000        1.0695518E-17
   2.946500        1.0704087E-17
   3.108000        1.0706363E-17
   3.269500        1.0701643E-17
   3.431000        1.0694211E-17
   3.592500        1.0690931E-17
   3.754000        1.0697360E-17
   3.915500        1.0714567E-17
   4.077000        1.0738421E-17
   4.238500        1.0761724E-17
   4.400000        1.0778017E-17
   4.561500        1.0784964E-17
   4.723000        1.0785455E-17
   4.884500        1.0785867E-17
   5.046000        1.0792450E-17
   5.207500        1.0807890E-17
   5.369000        1.0829947E-17
   5.530500        1.0852904E-17
   5.692000        1.0870957E-17
   5.853500        1.0881609E-17
   6.015000        1.0887120E-17
   6.176500        1.0893201E-17
   6.338000        1.0905714E-17
   6.499500        1.0927240E-17
   6.661000        1.0955479E-17
   6.822500        1.0984380E-17
   6.984000        1.1007329E-17
   7.145500        1.1020619E-17
   7.307000        1.1025255E-17
   7.468500        1.1026130E-17
   7.630000        1.1029108E-17
   7.791500        1.1037692E-17
   7.953000        1.1051131E-17
   8.114500        1.1064990E-17
   8.276000        1.1073823E-17
   8.437500        1.1074412E-17
   8.599000        1.1067755E-17
   8.760500        1.1058685E-17
   8.922000        1.1053333E-17
   9.083500        1.1055825E-17
   9.245000        1.1066060E-17
   9.406500        1.1079798E-17
   9.568000        1.1091035E-17
   9.729500        1.1095352E-17
   9.891000        1.1092376E-17
   10.05250        1.1085975E-17
   10.21400        1.1082041E-17
   10.37550        1.1085104E-17
   10.53700        1.1095668E-17
   10.69850        1.1109821E-17
   10.86000        1.1121374E-17
   11.02150        1.1125333E-17
   11.18300        1.1120741E-17
   11.34450        1.1111262E-17
   11.50600        1.1103150E-17
   11.66750        1.1101760E-17
   11.82900        1.1108597E-17
   11.99050        1.1120565E-17
   12.15200        1.1131844E-17
   12.31350        1.1137327E-17
   12.47500        1.1135648E-17
   12.63650        1.1130106E-17
   12.79800        1.1126951E-17
   12.95950        1.1132010E-17
   13.12100        1.1147533E-17
   13.28250        1.1171009E-17
   13.44400        1.1196584E-17
   13.60550        1.1218255E-17
   13.76700        1.1233061E-17
   13.92850        1.1242506E-17
   14.09000        1.1251447E-17
   14.25150        1.1265073E-17
   14.41300        1.1285686E-17
   14.57450        1.1311074E-17
   14.73600        1.1335446E-17
   14.89750        1.1352390E-17
   15.05900        1.1358268E-17
   15.22050        1.1354133E-17
   15.38200        1.1345122E-17
   15.54350        1.1337657E-17
   15.70500        1.1336048E-17
   15.86650        1.1340372E-17
   16.02800        1.1346790E-17
   16.18950        1.1350088E-17
   16.35100        1.1346945E-17
   16.51250        1.1338067E-17
   16.67400        1.1327966E-17
   16.83550        1.1322540E-17
   16.99700        1.1325837E-17
   17.15850        1.1337867E-17
   17.32000        1.1354635E-17
   17.48150        1.1370381E-17
   17.64300        1.1380685E-17
   17.80450        1.1384757E-17
   17.96600        1.1385633E-17
   18.12750        1.1388260E-17
   18.28900        1.1396587E-17
   18.45050        1.1411301E-17
   18.61200        1.1429465E-17
   18.77350        1.1446198E-17
   18.93500        1.1457429E-17
   19.09650        1.1462152E-17
   19.25800        1.1462930E-17
   19.41950        1.1464411E-17
   19.58100        1.1470688E-17
   19.74250        1.1483012E-17
   19.90400        1.1499089E-17
   20.06550        1.1514357E-17
   20.22700        1.1524513E-17
   20.38850        1.1527836E-17
   20.55000        1.1526038E-17
   20.71150        1.1523172E-17
   20.87300        1.1523238E-17
   21.03450        1.1527896E-17
   21.19600        1.1535569E-17
   21.35750        1.1542447E-17
   21.51900        1.1544792E-17
   21.68050        1.1541208E-17
   21.84200        1.1533587E-17
   22.00350        1.1526170E-17
   22.16500        1.1523286E-17
   22.32650        1.1527043E-17
   22.48800        1.1536299E-17
   22.64950        1.1547467E-17
   22.81100        1.1556667E-17
   22.97250        1.1561981E-17
   23.13400        1.1564509E-17
   23.29550        1.1567668E-17
   23.45700        1.1575153E-17
   23.61850        1.1588744E-17
   23.78000        1.1607193E-17
   23.94150        1.1626802E-17
   24.10300        1.1643352E-17
   24.26450        1.1654297E-17
   24.42600        1.1659993E-17
   24.58750        1.1663299E-17
   24.74900        1.1667809E-17
   24.91050        1.1675714E-17
   25.07200        1.1686505E-17
   25.23350        1.1697251E-17
   25.39500        1.1704275E-17
   25.55650        1.1705313E-17
   25.71800        1.1700959E-17
   25.87950        1.1694568E-17
   26.04100        1.1690664E-17
   26.20250        1.1692707E-17
   26.36400        1.1701445E-17
   26.52550        1.1714742E-17
   26.68700        1.1728974E-17
   26.84850        1.1741166E-17
   27.01000        1.1750685E-17
   27.17150        1.1759517E-17
   27.33300        1.1771003E-17
   27.49450        1.1787736E-17
   27.65600        1.1809817E-17
   27.81750        1.1834423E-17
   27.97900        1.1856962E-17
   28.14050        1.1873175E-17
   28.30200        1.1881076E-17
   28.46350        1.1881704E-17
   28.62500        1.1878333E-17
   28.78650        1.1874613E-17
   28.94800        1.1872661E-17
   29.10950        1.1872137E-17
   29.27100        1.1870724E-17
   29.43250        1.1865750E-17
   29.59400        1.1856014E-17
   29.75550        1.1842838E-17
   29.91700        1.1829743E-17
   30.07850        1.1820893E-17
   30.24000        1.1819133E-17
   30.40150        1.1824649E-17
   30.56300        1.1834967E-17
   30.72450        1.1846308E-17
   30.88600        1.1855545E-17
   31.04750        1.1861747E-17
   31.20900        1.1866477E-17
   31.37050        1.1872719E-17
   31.53200        1.1883038E-17
   31.69350        1.1897992E-17
   31.85500        1.1915677E-17
   32.01650        1.1932654E-17
   32.17800        1.1945716E-17
   32.33950        1.1953528E-17
   32.50100        1.1957232E-17
   32.66250        1.1959711E-17
   32.82400        1.1963950E-17
   32.98550        1.1971414E-17
   33.14700        1.1981296E-17
   33.30850        1.1991053E-17
   33.47000        1.1997873E-17
   33.63150        1.2000279E-17
   33.79300        1.1998965E-17
   33.95450        1.1996448E-17
   34.11600        1.1995724E-17
   34.27750        1.1998688E-17
   34.43900        1.2005184E-17
   34.60050        1.2013188E-17
   34.76200        1.2020000E-17
   34.92350        1.2023766E-17
   35.08500        1.2024494E-17
   35.24650        1.2024024E-17
   35.40800        1.2024971E-17
   35.56950        1.2029261E-17
   35.73100        1.2037072E-17
   35.89250        1.2046772E-17
   36.05400        1.2055894E-17
   36.21550        1.2062580E-17
   36.37700        1.2066684E-17
   36.53850        1.2069909E-17
   36.70000        1.2074879E-17
   36.86150        1.2083678E-17
   37.02300        1.2096633E-17
   37.18450        1.2112042E-17
   37.34600        1.2127000E-17
   37.50750        1.2138890E-17
   37.66900        1.2146707E-17
   37.83050        1.2151471E-17
   37.99200        1.2155470E-17
   38.15350        1.2160768E-17
   38.31500        1.2167829E-17
   38.47650        1.2175080E-17
   38.63800        1.2179718E-17
   38.79950        1.2179340E-17
   38.96100        1.2173462E-17
   39.12250        1.2164087E-17
   39.28400        1.2154910E-17
   39.44550        1.2149583E-17
   39.60700        1.2149982E-17
   39.76850        1.2155441E-17
   39.93000        1.2163377E-17
   40.09150        1.2170956E-17
   40.25300        1.2176845E-17
   40.41450        1.2182031E-17
   40.57600        1.2189265E-17
   40.73750        1.2201396E-17
   40.89900        1.2219521E-17
   41.06050        1.2241986E-17
   41.22200        1.2264834E-17
   41.38350        1.2283511E-17
   41.54500        1.2294978E-17
   41.70650        1.2299064E-17
   41.86800        1.2298362E-17
   42.02950        1.2296650E-17
   42.19100        1.2296731E-17
   42.35250        1.2298865E-17
   42.51400        1.2300715E-17
   42.67550        1.2298833E-17
   42.83700        1.2290920E-17
   42.99850        1.2277531E-17
   43.16000        1.2262251E-17
   43.32150        1.2250136E-17
   43.48300        1.2245264E-17
   43.64450        1.2248737E-17
   43.80600        1.2258255E-17
   43.96750        1.2269508E-17
   44.12900        1.2278582E-17
   44.29050        1.2284064E-17
   44.45200        1.2287677E-17
   44.61350        1.2293141E-17
   44.77500        1.2303905E-17
   44.93650        1.2321030E-17
   45.09800        1.2342364E-17
   45.25950        1.2363484E-17
   45.42100        1.2379888E-17
   45.58250        1.2389280E-17
   45.74400        1.2392695E-17
   45.90550        1.2393856E-17
   46.06700        1.2397107E-17
   46.22850        1.2405014E-17
   46.39000        1.2416955E-17
   46.55150        1.2429471E-17
   46.71300        1.2438218E-17
   46.87450        1.2440456E-17
   47.03600        1.2436684E-17
   47.19750        1.2430481E-17
   47.35900        1.2426603E-17
   47.52050        1.2428409E-17
   47.68200        1.2436071E-17
   47.84350        1.2446578E-17
   48.00500        1.2455514E-17
   48.16650        1.2459575E-17
   48.32800        1.2458364E-17
   48.48950        1.2454506E-17
   48.65100        1.2452040E-17
   48.81250        1.2454059E-17
   48.97400        1.2460952E-17
   49.13550        1.2470232E-17
   49.29700        1.2477985E-17
   49.45850        1.2481113E-17
   49.62000        1.2479092E-17
   49.78150        1.2474284E-17
   49.94300        1.2470688E-17
   50.10450        1.2471838E-17
   50.26600        1.2478996E-17
   50.42750        1.2490614E-17
   50.58900        1.2503297E-17
   50.75050        1.2513712E-17
   50.91200        1.2520371E-17
   51.07350        1.2524274E-17
   51.23500        1.2528090E-17
   51.39650        1.2534342E-17
   51.55800        1.2543698E-17
   51.71950        1.2554358E-17
   51.88100        1.2562936E-17
   52.04250        1.2566340E-17
   52.20400        1.2563541E-17
   52.36550        1.2556241E-17
   52.52700        1.2548019E-17
   52.68850        1.2542473E-17
   52.85000        1.2541436E-17
   53.01150        1.2544294E-17
   53.17300        1.2548750E-17
   53.33450        1.2552534E-17
   53.49600        1.2554985E-17
   53.65750        1.2557545E-17
   53.81900        1.2562897E-17
   53.98050        1.2573286E-17
   54.14200        1.2589014E-17
   54.30350        1.2608018E-17
   54.46500        1.2626752E-17
   54.62650        1.2641887E-17
   54.78800        1.2651876E-17
   54.94950        1.2657500E-17
   55.11100        1.2661141E-17
   55.27250        1.2665198E-17
   55.43400        1.2670574E-17
   55.59550        1.2676086E-17
   55.75700        1.2679144E-17
   55.91850        1.2677320E-17
   56.08000        1.2669921E-17
   56.24150        1.2658649E-17
   56.40300        1.2646955E-17
   56.56450        1.2638394E-17
   56.72600        1.2634879E-17
   56.88750        1.2635840E-17
   57.04900        1.2638782E-17
   57.21050        1.2640939E-17
   57.37200        1.2641078E-17
   57.53350        1.2640386E-17
   57.69500        1.2641896E-17
   57.85650        1.2648764E-17
   58.01800        1.2662398E-17
   58.17950        1.2681497E-17
   58.34100        1.2702567E-17
   58.50250        1.2721605E-17
   58.66400        1.2736005E-17
   58.82550        1.2745621E-17
   58.98700        1.2752457E-17
   59.14850        1.2759213E-17
   59.31000        1.2767565E-17
   59.47150        1.2777140E-17
   59.63300        1.2785743E-17
   59.79450        1.2790643E-17
   59.95600        1.2790174E-17
   60.11750        1.2784797E-17
   60.27900        1.2777023E-17
   60.44050        1.2770286E-17
   60.60200        1.2767309E-17
   60.76350        1.2768861E-17
   60.92500        1.2773508E-17
   61.08650        1.2778514E-17
   61.24800        1.2781363E-17
   61.40950        1.2781103E-17
   61.57100        1.2778758E-17
   61.73250        1.2776627E-17
   61.89400        1.2776887E-17
   62.05550        1.2780312E-17
   62.21700        1.2785835E-17
   62.37850        1.2791188E-17
   62.54000        1.2794223E-17
   62.70150        1.2794147E-17
   62.86300        1.2791962E-17
   63.02450        1.2789899E-17
   63.18600        1.2790228E-17
   63.34750        1.2794132E-17
   63.50900        1.2801247E-17
   63.67050        1.2810051E-17
   63.83200        1.2818763E-17
   63.99350        1.2826225E-17
   64.15500        1.2832336E-17
   64.31650        1.2837857E-17
   64.47800        1.2843805E-17
   64.63950        1.2850788E-17
   64.80100        1.2858630E-17
   64.96250        1.2866429E-17
   65.12400        1.2872980E-17
   65.28550        1.2877324E-17
   65.44700        1.2879148E-17
   65.60850        1.2878875E-17
   65.77000        1.2877452E-17
   65.93150        1.2875935E-17
   66.09300        1.2875089E-17
   66.25450        1.2875175E-17
   66.41600        1.2876021E-17
   66.57750        1.2877277E-17
   66.73900        1.2878755E-17
   66.90050        1.2880615E-17
   67.06200        1.2883359E-17
   67.22350        1.2887645E-17
   67.38500        1.2894040E-17
   67.54650        1.2902797E-17
   67.70800        1.2913739E-17
   67.86950        1.2926258E-17
   68.03100        1.2939433E-17
   68.19250        1.2952225E-17
   68.35400        1.2963711E-17
   68.51550        1.2973270E-17
   68.67700        1.2980667E-17
   68.83850        1.2985994E-17
   69.00000        1.2989482E-17
   69.16150        1.2991284E-17
   69.32300        1.2991330E-17
   69.48450        1.2989366E-17
   69.64600        1.2985195E-17
   69.80750        1.2978996E-17
   69.96900        1.2971535E-17
   70.13050        1.2964125E-17
   70.29200        1.2958286E-17
   70.45350        1.2955255E-17
   70.61500        1.2955576E-17
   70.77650        1.2958964E-17
   70.93800        1.2964532E-17
   71.09950        1.2971286E-17
   71.26100        1.2978633E-17
   71.42250        1.2986621E-17
   71.58400        1.2995776E-17
   71.74550        1.3006604E-17
   71.90700        1.3019041E-17
   72.06850        1.3032195E-17
   72.23000        1.3044531E-17
   72.39150        1.3054435E-17
   72.55300        1.3060892E-17
   72.71450        1.3063908E-17
   72.87600        1.3064474E-17
   73.03750        1.3064036E-17
   73.19900        1.3063773E-17
   73.36050        1.3064017E-17
   73.52200        1.3064184E-17
   73.68350        1.3063213E-17
   73.84500        1.3060322E-17
   74.00650        1.3055621E-17
   74.16800        1.3050231E-17
   74.32950        1.3045824E-17
   74.49100        1.3043776E-17
   74.65250        1.3044430E-17
   74.81400        1.3046882E-17
   74.97550        1.3049480E-17
   75.13700        1.3050778E-17
   75.29850        1.3050400E-17
   75.46000        1.3049284E-17
   75.62150        1.3049146E-17
   75.78300        1.3051445E-17
   75.94450        1.3056493E-17
   76.10600        1.3063228E-17
   76.26750        1.3069809E-17
   76.42900        1.3074677E-17
   76.59050        1.3077483E-17
   76.75200        1.3079301E-17
   76.91350        1.3082022E-17
   77.07500        1.3087246E-17
   77.23650        1.3095324E-17
   77.39800        1.3105124E-17
   77.55950        1.3114640E-17
   77.72100        1.3122121E-17
   77.88250        1.3127061E-17
   78.04400        1.3130485E-17
   78.20550        1.3134345E-17
   78.36700        1.3140341E-17
   78.52850        1.3148803E-17
   78.69000        1.3158302E-17
   78.85150        1.3166264E-17
   79.01300        1.3170323E-17
   79.17450        1.3169670E-17
   79.33600        1.3165597E-17
   79.49750        1.3160874E-17
   79.65900        1.3158253E-17
   79.82050        1.3158959E-17
   79.98200        1.3162061E-17
   80.14350        1.3165138E-17
   80.30500        1.3165890E-17
   80.46650        1.3163766E-17
   80.62800        1.3160602E-17
   80.78950        1.3159809E-17
   80.95100        1.3164527E-17
   81.11250        1.3175766E-17
   81.27400        1.3191679E-17
   81.43550        1.3208394E-17
   81.59700        1.3221993E-17
   81.75850        1.3230498E-17
   81.92000        1.3234733E-17
   82.08150        1.3237574E-17
   82.24300        1.3242036E-17
   82.40450        1.3249281E-17
   82.56600        1.3257758E-17
   82.72750        1.3263987E-17
   82.88900        1.3264583E-17
   83.05050        1.3258370E-17
   83.21200        1.3247307E-17
   83.37350        1.3235676E-17
   83.53500        1.3227932E-17
   83.69650        1.3226443E-17
   83.85800        1.3230393E-17
   84.01950        1.3236475E-17
   84.18100        1.3240957E-17
   84.34250        1.3241933E-17
   84.50400        1.3240438E-17
   84.66550        1.3239791E-17
   84.82700        1.3243540E-17
   84.98850        1.3253230E-17
   85.15000        1.3267325E-17
   85.31150        1.3281946E-17
   85.47300        1.3292980E-17
   85.63450        1.3298356E-17
   85.79600        1.3299128E-17
   85.95750        1.3298770E-17
   86.11900        1.3301053E-17
   86.28050        1.3307748E-17
   86.44200        1.3317484E-17
   86.60350        1.3326448E-17
   86.76500        1.3330560E-17
   86.92650        1.3327850E-17
   87.08800        1.3319647E-17
   87.24950        1.3309842E-17
   87.41100        1.3302672E-17
   87.57250        1.3300322E-17
   87.73400        1.3301790E-17
   87.89550        1.3303672E-17
   88.05700        1.3302420E-17
   88.21850        1.3296685E-17
   88.38000        1.3288367E-17
   88.54150        1.3281681E-17
   88.70300        1.3280782E-17
   88.86450        1.3287338E-17
   89.02600        1.3299487E-17
   89.18750        1.3312799E-17
   89.34900        1.3322672E-17
   89.51050        1.3326766E-17
   89.67200        1.3326109E-17
   89.83350        1.3324271E-17
   89.99500        1.3325163E-17
   90.15650        1.3330726E-17
   90.31800        1.3339822E-17
   90.47950        1.3348966E-17
   90.64100        1.3354451E-17
   90.80250        1.3354652E-17
   90.96400        1.3351148E-17
   91.12550        1.3347991E-17
   91.28700        1.3349502E-17
   91.44850        1.3357829E-17
   91.61000        1.3371672E-17
   91.77150        1.3386901E-17
   91.93300        1.3398740E-17
   92.09450        1.3404281E-17
   92.25600        1.3403911E-17
   92.41750        1.3400839E-17
   92.57900        1.3399021E-17
   92.74050        1.3400746E-17
   92.90200        1.3405332E-17
   93.06350        1.3409713E-17
   93.22500        1.3410513E-17
   93.38650        1.3406340E-17
   93.54800        1.3398869E-17
   93.70950        1.3392109E-17
   93.87100        1.3390272E-17
   94.03250        1.3395512E-17
   94.19400        1.3406810E-17
   94.35550        1.3420613E-17
   94.51700        1.3432827E-17
   94.67850        1.3440971E-17
   94.84000        1.3445312E-17
   95.00150        1.3448337E-17
   95.16300        1.3452975E-17
   95.32450        1.3460662E-17
   95.48600        1.3470373E-17
   95.64750        1.3479174E-17
   95.80900        1.3483953E-17
   95.97050        1.3483303E-17
   96.13200        1.3478474E-17
   96.29350        1.3472780E-17
   96.45500        1.3469786E-17
   96.61650        1.3471283E-17
   96.77800        1.3476274E-17
   96.93950        1.3481592E-17
   97.10100        1.3483804E-17
   97.26250        1.3481255E-17
   97.42400        1.3475053E-17
   97.58550        1.3468397E-17
   97.74700        1.3464686E-17
   97.90850        1.3465553E-17
   98.07000        1.3470020E-17
   98.23150        1.3475266E-17
   98.39300        1.3478541E-17
   98.55450        1.3479015E-17
   98.71600        1.3478404E-17
   98.87750        1.3479973E-17
   99.03900        1.3486516E-17
   99.20050        1.3498577E-17
   99.36200        1.3513962E-17
   99.52350        1.3528798E-17
   99.68500        1.3539477E-17
   99.84650        1.3544370E-17
   100.0080        1.3544352E-17
   100.1695        1.3541957E-17
   100.3310        1.3539710E-17
   100.4925        1.3538687E-17
   100.6540        1.3538108E-17
   100.8155        1.3536170E-17
   100.9770        1.3531532E-17
   101.1385        1.3524503E-17
   101.3000        1.3517224E-17
   101.4615        1.3512686E-17
   101.6230        1.3513209E-17
   101.7845        1.3519200E-17
   101.9460        1.3528927E-17
   102.1075        1.3539409E-17
   102.2690        1.3547944E-17
   102.4305        1.3553398E-17
   102.5920        1.3556533E-17
   102.7535        1.3559184E-17
   102.9150        1.3562869E-17
   103.0765        1.3567698E-17
   103.2380        1.3572297E-17
   103.3995        1.3574760E-17
   103.5610        1.3574026E-17
   103.7225        1.3570777E-17
   103.8840        1.3567296E-17
   104.0455        1.3566308E-17
   104.2070        1.3569488E-17
   104.3685        1.3576529E-17
   104.5300        1.3585315E-17
   104.6915        1.3593128E-17
   104.8530        1.3598122E-17
   105.0145        1.3600188E-17
   105.1760        1.3600743E-17
   105.3375        1.3601643E-17
   105.4990        1.3603945E-17
   105.6605        1.3607247E-17
   105.8220        1.3609996E-17
   105.9835        1.3610527E-17
   106.1450        1.3608206E-17
   106.3065        1.3604006E-17
   106.4680        1.3600132E-17
   106.6295        1.3598907E-17
   106.7910        1.3601539E-17
   106.9525        1.3607483E-17
   107.1140        1.3614758E-17
   107.2755        1.3620998E-17
   107.4370        1.3624654E-17
   107.5985        1.3625655E-17
   107.7600        1.3625217E-17
   107.9215        1.3624972E-17
   108.0830        1.3625945E-17
   108.2445        1.3628013E-17
   108.4060        1.3630157E-17
   108.5675        1.3631324E-17
   108.7290        1.3631296E-17
   108.8905        1.3631000E-17
   109.0520        1.3632008E-17
   109.2135        1.3635608E-17
   109.3750        1.3641983E-17
   109.5365        1.3650053E-17
   109.6980        1.3657997E-17
   109.8595        1.3664156E-17
   110.0210        1.3667763E-17
   110.1825        1.3669108E-17
   110.3440        1.3669081E-17
   110.5055        1.3668485E-17
   110.6670        1.3667549E-17
   110.8285        1.3665991E-17
   110.9900        1.3663527E-17
   111.1515        1.3660478E-17
   111.3130        1.3657960E-17
   111.4745        1.3657558E-17
   111.6360        1.3660622E-17
   111.7975        1.3667607E-17
   111.9590        1.3677848E-17
   112.1205        1.3689893E-17
   112.2820        1.3702191E-17
   112.4435        1.3713745E-17
   112.6050        1.3724305E-17
   112.7665        1.3734061E-17
   112.9280        1.3743019E-17
   113.0895        1.3750576E-17
   113.2510        1.3755612E-17
   113.4125        1.3757080E-17
   113.5740        1.3754701E-17
   113.7355        1.3749349E-17
   113.8970        1.3742789E-17
   114.0585        1.3736949E-17
   114.2200        1.3733087E-17
   114.3815        1.3731351E-17
   114.5430        1.3730971E-17
   114.7045        1.3730935E-17
   114.8660        1.3730725E-17
   115.0275        1.3730627E-17
   115.1890        1.3731413E-17
   115.3505        1.3733641E-17
   115.5120        1.3737036E-17
   115.6735        1.3740410E-17
   115.8350        1.3742205E-17
   115.9965        1.3741367E-17
   116.1580        1.3738047E-17
   116.3195        1.3733667E-17
   116.4810        1.3730254E-17
   116.6425        1.3729393E-17
   116.8040        1.3731366E-17
   116.9655        1.3735012E-17
   117.1270        1.3738440E-17
   117.2885        1.3740190E-17
   117.4500        1.3740136E-17
   117.6115        1.3739570E-17
   117.7730        1.3740379E-17
   117.9345        1.3743791E-17
   118.0960        1.3749467E-17
   118.2575        1.3755525E-17
   118.4190        1.3759556E-17
   118.5805        1.3760083E-17
   118.7420        1.3757578E-17