  -27.90000        6.2206290E-18
  -27.73850        6.2231887E-18
  -27.57700        6.2272014E-18
  -27.41550        6.2312777E-18
  -27.25400        6.2346497E-18
  -27.09250        6.2375233E-18
  -26.93100        6.2406641E-18
  -26.76950        6.2446011E-18
  -26.60800        6.2491270E-18
  -26.44650        6.2534739E-18
  -26.28500        6.2569641E-18
  -26.12350        6.2595809E-18
  -25.96200        6.2619603E-18
  -25.80050        6.2648406E-18
  -25.63900        6.2684338E-18
  -25.47750        6.2722666E-18
  -25.31600        6.2756166E-18
  -25.15450        6.2781668E-18
  -24.99300        6.2802906E-18
  -24.83150        6.2827147E-18
  -24.67000        6.2858509E-18
  -24.50850        6.2893871E-18
  -24.34700        6.2925250E-18
  -24.18550        6.2946662E-18
  -24.02400        6.2959649E-18
  -23.86250        6.2972594E-18
  -23.70100        6.2994084E-18
  -23.53950        6.3025840E-18
  -23.37800        6.3061011E-18
  -23.21650        6.3089467E-18
  -23.05500        6.3105894E-18
  -22.89350        6.3114059E-18
  -22.73200        6.3123720E-18
  -22.57050        6.3142658E-18
  -22.40900        6.3170220E-18
  -22.24750        6.3197939E-18
  -22.08600        6.3216757E-18
  -21.92450        6.3224917E-18
  -21.76300        6.3229802E-18
  -21.60150        6.3241974E-18
  -21.44000        6.3266264E-18
  -21.27850        6.3297242E-18
  -21.11700        6.3322951E-18
  -20.95550        6.3333923E-18
  -20.79400        6.3330437E-18
  -20.63250        6.3322285E-18
  -20.47100        6.3321664E-18
  -20.30950        6.3334916E-18
  -20.14800        6.3359462E-18
  -19.98650        6.3387855E-18
  -19.82500        6.3414892E-18
  -19.66350        6.3441717E-18
  -19.50200        6.3473481E-18
  -19.34050        6.3513012E-18
  -19.17900        6.3556472E-18
  -19.01750        6.3594981E-18
  -18.85600        6.3621158E-18
  -18.69450        6.3634698E-18
  -18.53300        6.3642019E-18
  -18.37150        6.3650121E-18
  -18.21000        6.3660126E-18
  -18.04850        6.3666305E-18
  -17.88700        6.3661727E-18
  -17.72550        6.3645696E-18
  -17.56400        6.3626472E-18
  -17.40250        6.3616376E-18
  -17.24100        6.3622886E-18
  -17.07950        6.3642921E-18
  -16.91800        6.3665101E-18
  -16.75650        6.3678676E-18
  -16.59500        6.3682050E-18
  -16.43350        6.3684172E-18
  -16.27200        6.3697457E-18
  -16.11050        6.3728050E-18
  -15.94900        6.3771109E-18
  -15.78750        6.3815024E-18
  -15.62600        6.3850766E-18
  -15.46450        6.3878572E-18
  -15.30300        6.3906663E-18
  -15.14150        6.3943224E-18
  -14.98000        6.3988744E-18
  -14.81850        6.4035066E-18
  -14.65700        6.4071839E-18
  -14.49550        6.4094718E-18
  -14.33400        6.4108652E-18
  -14.17250        6.4123583E-18
  -14.01100        6.4146351E-18
  -13.84950        6.4175517E-18
  -13.68800        6.4203058E-18
  -13.52650        6.4221157E-18
  -13.36500        6.4228039E-18
  -13.20350        6.4227861E-18
  -13.04200        6.4225305E-18
  -12.88050        6.4220173E-18
  -12.71900        6.4207405E-18
  -12.55750        6.4182739E-18
  -12.39600        6.4148903E-18
  -12.23450        6.4116188E-18
  -12.07300        6.4096104E-18
  -11.91150        6.4092952E-18
  -11.75000        6.4100496E-18
  -11.58850        6.4106981E-18
  -11.42700        6.4104752E-18
  -11.26550        6.4096844E-18
  -11.10400        6.4094838E-18
  -10.94250        6.4109413E-18
  -10.78100        6.4140974E-18
  -10.61950        6.4177788E-18
  -10.45800        6.4203658E-18
  -10.29650        6.4209378E-18
  -10.13500        6.4199307E-18
  -9.973500        6.4188273E-18
  -9.812000        6.4191337E-18
  -9.650500        6.4214507E-18
  -9.489000        6.4253028E-18
  -9.327500        6.4297436E-18
  -9.166000        6.4341624E-18
  -9.004500        6.4386188E-18
  -8.843000        6.4435327E-18
  -8.681500        6.4490930E-18
  -8.520000        6.4549808E-18
  -8.358500        6.4606255E-18
  -8.197000        6.4657288E-18
  -8.035500        6.4705314E-18
  -7.874000        6.4755371E-18
  -7.712500        6.4809109E-18
  -7.551000        6.4861043E-18
  -7.389500        6.4900938E-18
  -7.228000        6.4921043E-18
  -7.066500        6.4922379E-18
  -6.905000        6.4914645E-18
  -6.743500        6.4909272E-18
  -6.582000        6.4911075E-18
  -6.420500        6.4915203E-18
  -6.259000        6.4911998E-18
  -6.097500        6.4895669E-18
  -5.936000        6.4869725E-18
  -5.774500        6.4844665E-18
  -5.613000        6.4829983E-18
  -5.451500        6.4826968E-18
  -5.290000        6.4828246E-18
  -5.128500        6.4824159E-18
  -4.967000        6.4810850E-18
  -4.805500        6.4793413E-18
  -4.644000        6.4781750E-18
  -4.482500        6.4782664E-18
  -4.321000        6.4794629E-18
  -4.159500        6.4809642E-18
  -3.998000        6.4820346E-18
  -3.836500        6.4826608E-18
  -3.675000        6.4835868E-18
  -3.513500        6.4857160E-18
  -3.352000        6.4893514E-18
  -3.190500        6.4938827E-18
  -3.029000        6.4981361E-18
  -2.867500        6.5010821E-18
  -2.706000        6.5023506E-18
  -2.544500        6.5022294E-18
  -2.383000        6.5012517E-18
  -2.221500        6.4998000E-18
  -2.060000        6.4980401E-18
  -1.898500        6.4961662E-18
  -1.737000        6.4946247E-18
  -1.575500        6.4940217E-18
  -1.414000        6.4947260E-18
  -1.252500        6.4965169E-18
  -1.091000        6.4986498E-18
 -0.9295000        6.5003823E-18
 -0.7680000        6.5015796E-18
 -0.6065000        6.5028787E-18
 -0.4450000        6.5052097E-18
 -0.2835000        6.5089891E-18
 -0.1220000        6.5136110E-18
  3.9500002E-02    6.5176704E-18
  0.2010000        6.5198119E-18
  0.3625000        6.5196043E-18
  0.5240000        6.5178189E-18
  0.6855000        6.5159172E-18
  0.8470000        6.5151189E-18
   1.008500        6.5157100E-18
   1.170000        6.5170326E-18
   1.331500        6.5181017E-18
   1.493000        6.5183458E-18
   1.654500        6.5179458E-18
   1.816000        6.5176079E-18
   1.977500        6.5180347E-18
   2.139000        6.5195456E-18
   2.300500        6.5220834E-18
   2.462000        6.5254732E-18
   2.623500        6.5296041E-18
   2.785000        6.5343426E-18
   2.946500        6.5393020E-18
   3.108000        6.5437816E-18
   3.269500        6.5470518E-18
   3.431000        6.5488274E-18
   3.592500        6.5495524E-18
   3.754000        6.5502001E-18
   3.915500        6.5516770E-18
   4.077000        6.5542309E-18
   4.238500        6.5573151E-18
   4.400000        6.5600340E-18
   4.561500        6.5618290E-18
   4.723000        6.5628845E-18
   4.884500        6.5639267E-18
   5.046000        6.5655699E-18
   5.207500        6.5677446E-18
   5.369000        6.5696789E-18
   5.530500        6.5704573E-18
   5.692000        6.5697298E-18
   5.853500        6.5680126E-18
   6.015000        6.5663574E-18
   6.176500        6.5656655E-18
   6.338000        6.5661800E-18
   6.499500        6.5675279E-18
   6.661000        6.5692178E-18
   6.822500        6.5711447E-18
   6.984000        6.5736610E-18
   7.145500        6.5771674E-18
   7.307000        6.5815626E-18
   7.468500        6.5860323E-18
   7.630000        6.5893936E-18
   7.791500        6.5907406E-18
   7.953000        6.5899172E-18
   8.114500        6.5874766E-18
   8.276000        6.5842071E-18
   8.437500        6.5806333E-18
   8.599000        6.5768791E-18
   8.760500        6.5729186E-18
   8.922000        6.5689183E-18
   9.083500        6.5653127E-18
   9.245000        6.5625379E-18
   9.406500        6.5606991E-18
   9.568000        6.5595112E-18
   9.729500        6.5586295E-18
   9.891000        6.5580947E-18
   10.05250        6.5584901E-18
   10.21400        6.5605804E-18
   10.37550        6.5646613E-18
   10.53700        6.5701256E-18
   10.69850        6.5756471E-18
   10.86000        6.5799203E-18
   11.02150        6.5824519E-18
   11.18300        6.5838217E-18
   11.34450        6.5851985E-18
   11.50600        6.5874886E-18
   11.66750        6.5907385E-18
   11.82900        6.5942259E-18
   11.99050        6.5971132E-18
   12.15200        6.5991340E-18
   12.31350        6.6007904E-18
   12.47500        6.6029424E-18
   12.63650        6.6061506E-18
   12.79800        6.6102844E-18
   12.95950        6.6146449E-18
   13.12100        6.6184408E-18
   13.28250        6.6212090E-18
   13.44400        6.6228815E-18
   13.60550        6.6235586E-18
   13.76700        6.6232955E-18
   13.92850        6.6221598E-18
   14.09000        6.6204939E-18
   14.25150        6.6190653E-18
   14.41300        6.6188321E-18
   14.57450        6.6203884E-18
   14.73600        6.6235028E-18
   14.89750        6.6271457E-18
   15.05900        6.6300702E-18
   15.22050        6.6315314E-18
   15.38200        6.6316244E-18
   15.54350        6.6309892E-18
   15.70500        6.6301347E-18
   15.86650        6.6289382E-18
   16.02800        6.6267424E-18
   16.18950        6.6229829E-18
   16.35100        6.6178395E-18
   16.51250        6.6123747E-18
   16.67400        6.6080121E-18
   16.83550        6.6057229E-18
   16.99700        6.6055327E-18
   17.15850        6.6066916E-18
   17.32000        6.6083347E-18
   17.48150        6.6100925E-18
   17.64300        6.6121981E-18
   17.80450        6.6150717E-18
   17.96600        6.6187878E-18
   18.12750        6.6228820E-18
   18.28900        6.6266415E-18
   18.45050        6.6295838E-18
   18.61200        6.6317162E-18
   18.77350        6.6333681E-18
   18.93500        6.6347834E-18
   19.09650        6.6358563E-18
   19.25800        6.6362595E-18
   19.41950        6.6358385E-18
   19.58100        6.6349059E-18
   19.74250        6.6341349E-18
   19.90400        6.6341142E-18
   20.06550        6.6349385E-18
   20.22700        6.6361913E-18
   20.38850        6.6373647E-18
   20.55000        6.6383457E-18
   20.71150        6.6395418E-18
   20.87300        6.6414948E-18
   21.03450        6.6442865E-18
   21.19600        6.6472474E-18
   21.35750        6.6492504E-18
   21.51900        6.6494283E-18
   21.68050        6.6477805E-18
   21.84200        6.6452336E-18
   22.00350        6.6430954E-18
   22.16500        6.6423050E-18
   22.32650        6.6430093E-18
   22.48800        6.6447092E-18
   22.64950        6.6467953E-18
   22.81100        6.6489994E-18
   22.97250        6.6514263E-18
   23.13400        6.6542081E-18
   23.29550        6.6571359E-18
   23.45700        6.6596228E-18
   23.61850        6.6610460E-18
   23.78000        6.6611730E-18
   23.94150        6.6603305E-18
   24.10300        6.6591762E-18
   24.26450        6.6582956E-18
   24.42600        6.6579486E-18
   24.58750        6.6581414E-18
   24.74900        6.6589011E-18
   24.91050        6.6604554E-18
   25.07200        6.6631061E-18
   25.23350        6.6668904E-18
   25.39500        6.6713365E-18
   25.55650        6.6755742E-18
   25.71800        6.6787787E-18
   25.87950        6.6806361E-18
   26.04100        6.6814600E-18
   26.20250        6.6818620E-18
   26.36400        6.6822326E-18
   26.52550        6.6824414E-18
   26.68700        6.6820030E-18
   26.84850        6.6805621E-18
   27.01000        6.6782985E-18
   27.17150        6.6759063E-18
   27.33300        6.6741444E-18
   27.49450        6.6733131E-18
   27.65600        6.6730674E-18
   27.81750        6.6727188E-18
   27.97900        6.6717890E-18
   28.14050        6.6703973E-18
   28.30200        6.6691681E-18
   28.46350        6.6687524E-18
   28.62500        6.6693269E-18
   28.78650        6.6704581E-18
   28.94800        6.6713949E-18
   29.10950        6.6715582E-18
   29.27100        6.6708332E-18
   29.43250        6.6694973E-18
   29.59400        6.6679186E-18
   29.75550        6.6663205E-18
   29.91700        6.6648192E-18
   30.07850        6.6636334E-18
   30.24000        6.6631992E-18
   30.40150        6.6640098E-18
   30.56300        6.6662494E-18
   30.72450        6.6695391E-18
   30.88600        6.6730434E-18
   31.04750        6.6759237E-18
   31.20900        6.6778225E-18
   31.37050        6.6789983E-18
   31.53200        6.6800075E-18
   31.69350        6.6811788E-18
   31.85500        6.6823079E-18
   32.01650        6.6828472E-18
   32.17800        6.6824493E-18
   32.33950        6.6814290E-18
   32.50100        6.6807544E-18
   32.66250        6.6815386E-18
   32.82400        6.6843791E-18
   32.98550        6.6890167E-18
   33.14700        6.6945286E-18
   33.30850        6.6998809E-18
   33.47000        6.7044122E-18
   33.63150        6.7079641E-18
   33.79300        6.7106479E-18
   33.95450        6.7125363E-18
   34.11600        6.7135707E-18
   34.27750        6.7137126E-18
   34.43900        6.7131423E-18
   34.60050        6.7122605E-18
   34.76200        6.7114358E-18
   34.92350        6.7107161E-18
   35.08500        6.7097814E-18
   35.24650        6.7082180E-18
   35.40800        6.7059226E-18
   35.56950        6.7032905E-18
   35.73100        6.7010174E-18
   35.89250        6.6996418E-18
   36.05400        6.6991844E-18
   36.21550        6.6991786E-18
   36.37700        6.6990624E-18
   36.53850        6.6986281E-18
   36.70000        6.6981752E-18
   36.86150        6.6982497E-18
   37.02300        6.6991840E-18
   37.18450        6.7008189E-18
   37.34600        6.7026114E-18
   37.50750        6.7040416E-18
   37.66900        6.7049842E-18
   37.83050        6.7057613E-18
   37.99200        6.7068449E-18
   38.15350        6.7084782E-18
   38.31500        6.7105197E-18
   38.47650        6.7126178E-18
   38.63800        6.7145480E-18
   38.79950        6.7163927E-18
   38.96100        6.7184039E-18
   39.12250        6.7206580E-18
   39.28400        6.7228004E-18
   39.44550        6.7241309E-18
   39.60700        6.7240085E-18
   39.76850        6.7223012E-18
   39.93000        6.7195504E-18
   40.09150        6.7167310E-18
   40.25300        6.7147639E-18
   40.41450        6.7141076E-18
   40.57600        6.7146721E-18
   40.73750        6.7160486E-18
   40.89900        6.7178295E-18
   41.06050        6.7197721E-18
   41.22200        6.7217338E-18
   41.38350        6.7235192E-18
   41.54500        6.7248373E-18
   41.70650        6.7254292E-18
   41.86800        6.7252551E-18
   42.02950        6.7245524E-18
   42.19100        6.7236685E-18
   42.35250        6.7228178E-18
   42.51400        6.7219662E-18
   42.67550        6.7209852E-18
   42.83700        6.7199499E-18
   42.99850        6.7193188E-18
   43.16000        6.7197614E-18
   43.32150        6.7217040E-18
   43.48300        6.7249056E-18
   43.64450        6.7284298E-18
   43.80600        6.7311214E-18
   43.96750        6.7322960E-18
   44.12900        6.7321823E-18
   44.29050        6.7317724E-18
   44.45200        6.7321753E-18
   44.61350        6.7339074E-18
   44.77500        6.7366201E-18
   44.93650        6.7394036E-18
   45.09800        6.7414289E-18
   45.25950        6.7424323E-18
   45.42100        6.7427367E-18
   45.58250        6.7428740E-18
   45.74400        6.7431668E-18
   45.90550        6.7435995E-18
   46.06700        6.7440155E-18
   46.22850        6.7443989E-18
   46.39000        6.7449325E-18
   46.55150        6.7457824E-18
   46.71300        6.7468317E-18
   46.87450        6.7476448E-18
   47.03600        6.7477668E-18
   47.19750        6.7470993E-18
   47.35900        6.7460066E-18
   47.52050        6.7450135E-18
   47.68200        6.7443125E-18
   47.84350        6.7435279E-18
   48.00500        6.7419860E-18
   48.16650        6.7393320E-18
   48.32800        6.7360080E-18
   48.48950        6.7331600E-18
   48.65100        6.7319767E-18
   48.81250        6.7329222E-18
   48.97400        6.7354352E-18
   49.13550        6.7383220E-18
   49.29700        6.7405410E-18
   49.45850        6.7417867E-18
   49.62000        6.7424608E-18
   49.78150        6.7431379E-18
   49.94300        6.7440122E-18
   50.10450        6.7448076E-18
   50.26600        6.7451856E-18
   50.42750        6.7452530E-18
   50.58900        6.7456629E-18
   50.75050        6.7471770E-18
   50.91200        6.7500324E-18
   51.07350        6.7536563E-18
   51.23500        6.7569932E-18
   51.39650        6.7591984E-18
   51.55800        6.7601497E-18
   51.71950        6.7603772E-18
   51.88100        6.7604979E-18
   52.04250        6.7606547E-18
   52.20400        6.7604367E-18
   52.36550        6.7593341E-18
   52.52700        6.7573125E-18
   52.68850        6.7549918E-18
   52.85000        6.7532564E-18
   53.01150        6.7526186E-18
   53.17300        6.7528808E-18
   53.33450        6.7533643E-18
   53.49600        6.7535066E-18
   53.65750        6.7532965E-18
   53.81900        6.7531675E-18
   53.98050        6.7534946E-18
   54.14200        6.7541559E-18
   54.30350        6.7546138E-18
   54.46500        6.7544587E-18
   54.62650        6.7539330E-18
   54.78800        6.7539070E-18
   54.94950        6.7552346E-18
   55.11100        6.7579767E-18
   55.27250        6.7611406E-18
   55.43400        6.7632586E-18
   55.59550        6.7634216E-18
   55.75700        6.7619968E-18
   55.91850        6.7604632E-18
   56.08000        6.7604504E-18
   56.24150        6.7626796E-18
   56.40300        6.7665806E-18
   56.56450        6.7708083E-18
   56.72600        6.7742163E-18
   56.88750        6.7765274E-18
   57.04900        6.7782492E-18
   57.21050        6.7800157E-18
   57.37200        6.7819504E-18
   57.53350        6.7835543E-18
   57.69500        6.7841400E-18
   57.85650        6.7833666E-18
   58.01800        6.7814219E-18
   58.17950        6.7787724E-18
   58.34100        6.7757983E-18
   58.50250        6.7727096E-18
   58.66400        6.7697975E-18
   58.82550        6.7676812E-18
   58.98700        6.7671423E-18
   59.14850        6.7685369E-18
   59.31000        6.7712360E-18
   59.47150        6.7736865E-18
   59.63300        6.7742457E-18
   59.79450        6.7722956E-18
   59.95600        6.7687987E-18
   60.11750        6.7657894E-18
   60.27900        6.7650673E-18
   60.44050        6.7670062E-18
   60.60200        6.7703463E-18
   60.76350        6.7731178E-18
   60.92500        6.7740108E-18
   61.08650        6.7731877E-18
   61.24800        6.7719800E-18
   61.40950        6.7717786E-18
   61.57100        6.7730037E-18
   61.73250        6.7749004E-18
   61.89400        6.7762156E-18
   62.05550        6.7761333E-18
   62.21700        6.7747349E-18
   62.37850        6.7727439E-18
   62.54000        6.7709121E-18
   62.70150        6.7696374E-18
   62.86300        6.7690617E-18
   63.02450        6.7693889E-18
   63.18600        6.7709638E-18
   63.34750        6.7739491E-18
   63.50900        6.7779142E-18
   63.67050        6.7818322E-18
   63.83200        6.7846781E-18
   63.99350        6.7862274E-18
   64.15500        6.7873631E-18
   64.31650        6.7895121E-18
   64.47800        6.7935368E-18
   64.63950        6.7989130E-18
   64.80100        6.8038794E-18
   64.96250        6.8065214E-18
   65.12400        6.8059937E-18
   65.28550        6.8029687E-18
   65.44700        6.7990040E-18
   65.60850        6.7953673E-18
   65.77000        6.7922629E-18
   65.93150        6.7890352E-18
   66.09300        6.7850842E-18
   66.25450        6.7806745E-18
   66.41600        6.7769423E-18
   66.57750        6.7751188E-18
   66.73900        6.7756357E-18
   66.90050        6.7778605E-18
   67.06200        6.7806402E-18
   67.22350        6.7831602E-18
   67.38500        6.7853940E-18
   67.54650        6.7878214E-18
   67.70800        6.7907351E-18
   67.86950        6.7938114E-18
   68.03100        6.7963252E-18
   68.19250        6.7977943E-18
   68.35400        6.7984477E-18
   68.51550        6.7990590E-18
   68.67700        6.8002870E-18
   68.83850        6.8020964E-18
   69.00000        6.8037909E-18
   69.16150        6.8046123E-18
   69.32300        6.8043753E-18
   69.48450        6.8035593E-18
   69.64600        6.8027764E-18
   69.80750        6.8021092E-18
   69.96900        6.8009433E-18
   70.13050        6.7985156E-18
   70.29200        6.7947325E-18
   70.45350        6.7905585E-18
   70.61500        6.7875509E-18
   70.77650        6.7868420E-18
   70.93800        6.7883421E-18
   71.09950        6.7908058E-18
   71.26100        6.7927385E-18
   71.42250        6.7934673E-18
   71.58400        6.7935554E-18
   71.74550        6.7942887E-18
   71.90700        6.7966507E-18
   72.06850        6.8005872E-18
   72.23000        6.8050635E-18
   72.39150        6.8087809E-18
   72.55300        6.8109477E-18
   72.71450        6.8115528E-18
   72.87600        6.8110610E-18
   73.03750        6.8099091E-18
   73.19900        6.8082540E-18
   73.36050        6.8061202E-18
   73.52200        6.8036809E-18
   73.68350        6.8013288E-18
   73.84500        6.7994279E-18
   74.00650        6.7980089E-18
   74.16800        6.7967624E-18
   74.32950        6.7954165E-18
   74.49100        6.7941774E-18
   74.65250        6.7937779E-18
   74.81400        6.7949765E-18
   74.97550        6.7978431E-18
   75.13700        6.8014368E-18
   75.29850        6.8042351E-18
   75.46000        6.8050768E-18
   75.62150        6.8039444E-18
   75.78300        6.8019831E-18
   75.94450        6.8007262E-18
   76.10600        6.8010831E-18
   76.26750        6.8028388E-18
   76.42900        6.8049804E-18
   76.59050        6.8065595E-18
   76.75200        6.8073871E-18
   76.91350        6.8080550E-18
   77.07500        6.8093268E-18
   77.23650        6.8114341E-18
   77.39800        6.8138511E-18
   77.55950        6.8156734E-18
   77.72100        6.8162429E-18
   77.88250        6.8155005E-18
   78.04400        6.8138507E-18
   78.20550        6.8117616E-18
   78.36700        6.8095001E-18
   78.52850        6.8072022E-18
   78.69000        6.8051065E-18
   78.85150        6.8036193E-18
   79.01300        6.8030766E-18
   79.17450        6.8034059E-18
   79.33600        6.8040502E-18
   79.49750        6.8043178E-18
   79.65900        6.8039262E-18
   79.82050        6.8032814E-18
   79.98200        6.8031937E-18
   80.14350        6.8041971E-18
   80.30500        6.8059912E-18
   80.46650        6.8075041E-18
   80.62800        6.8075769E-18
   80.78950        6.8057857E-18
   80.95100        6.8027652E-18
   81.11250        6.7997989E-18
   81.27400        6.7979998E-18
   81.43550        6.7976962E-18
   81.59700        6.7984357E-18
   81.75850        6.7995024E-18
   81.92000        6.8004905E-18
   82.08150        6.8014942E-18
   82.24300        6.8028736E-18
   82.40450        6.8048658E-18
   82.56600        6.8074036E-18
   82.72750        6.8102152E-18
   82.88900        6.8130309E-18
   83.05050        6.8156514E-18
   83.21200        6.8178236E-18
   83.37350        6.8191190E-18
   83.53500        6.8190536E-18
   83.69650        6.8174477E-18
   83.85800        6.8147428E-18
   84.01950        6.8119448E-18
   84.18100        6.8101234E-18
   84.34250        6.8097859E-18
   84.50400        6.8106011E-18
   84.66550        6.8116913E-18
   84.82700        6.8122790E-18
   84.98850        6.8121992E-18
   85.15000        6.8119126E-18
   85.31150        6.8120606E-18
   85.47300        6.8129308E-18
   85.63450        6.8142510E-18
   85.79600        6.8154016E-18
   85.95750        6.8158595E-18
   86.11900        6.8155079E-18
   86.28050        6.8146274E-18
   86.44200        6.8136393E-18
   86.60350        6.8128514E-18
   86.76500        6.8123849E-18
   86.92650        6.8122608E-18
   87.08800        6.8124891E-18
   87.24950        6.8130396E-18
   87.41100        6.8137473E-18
   87.57250        6.8143147E-18
   87.73400        6.8144653E-18
   87.89550        6.8141356E-18
   88.05700        6.8135165E-18
   88.21850        6.8128700E-18
   88.38000        6.8122674E-18
   88.54150        6.8114949E-18
   88.70300        6.8102355E-18
   88.86450        6.8084074E-18
   89.02600        6.8063841E-18
   89.18750        6.8048944E-18
   89.34900        6.8046396E-18
   89.51050        6.8058895E-18
   89.67200        6.8083309E-18
   89.83350        6.8112736E-18
   89.99500        6.8140583E-18
   90.15650        6.8163806E-18
   90.31800        6.8183195E-18
   90.47950        6.8201029E-18
   90.64100        6.8218172E-18
   90.80250        6.8232780E-18
   90.96400        6.8241114E-18
   91.12550        6.8239390E-18
   91.28700        6.8225443E-18
   91.44850        6.8199706E-18
   91.61000        6.8165622E-18
   91.77150        6.8129474E-18
   91.93300        6.8099203E-18
   92.09450        6.8081870E-18
   92.25600        6.8080629E-18
   92.41750        6.8092941E-18
   92.57900        6.8111491E-18
   92.74050        6.8127708E-18
   92.90200        6.8136191E-18
   93.06350        6.8137357E-18
   93.22500        6.8136571E-18
   93.38650        6.8140198E-18
   93.54800        6.8151196E-18
   93.70950        6.8167036E-18
   93.87100        6.8181392E-18
   94.03250        6.8188117E-18
   94.19400        6.8184820E-18
   94.35550        6.8173811E-18
   94.51700        6.8160290E-18
   94.67850        6.8149703E-18
   94.84000        6.8145740E-18
   95.00150        6.8149698E-18
   95.16300        6.8160592E-18
   95.32450        6.8175527E-18
   95.48600        6.8190325E-18
   95.64750        6.8200723E-18
   95.80900        6.8203974E-18
   95.97050        6.8200070E-18
   96.13200        6.8191665E-18
   96.29350        6.8182442E-18
   96.45500        6.8174836E-18
   96.61650        6.8168475E-18
   96.77800        6.8160733E-18
   96.93950        6.8149037E-18
   97.10100        6.8133535E-18
   97.26250        6.8117910E-18
   97.42400        6.8107616E-18
   97.58550        6.8106747E-18
   97.74700        6.8115945E-18
   97.90850        6.8132692E-18
   98.07000        6.8153334E-18
   98.23150        6.8174998E-18
   98.39300        6.8195847E-18
   98.55450        6.8214070E-18
   98.71600        6.8227003E-18
   98.87750        6.8231726E-18
   99.03900        6.8226883E-18
   99.20050        6.8214363E-18
   99.36200        6.8199408E-18
   99.52350        6.8188514E-18
   99.68500        6.8186388E-18
   99.84650        6.8193717E-18
   100.0080        6.8207221E-18
   100.1695        6.8221783E-18
   100.3310        6.8233103E-18
   100.4925        6.8239179E-18
   100.6540        6.8240134E-18
   100.8155        6.8237239E-18
   100.9770        6.8232218E-18
   101.1385        6.8226994E-18
   101.3000        6.8223115E-18
   101.4615        6.8220824E-18
   101.6230        6.8218288E-18
   101.7845        6.8212270E-18
   101.9460        6.8200434E-18
   102.1075        6.8183836E-18
   102.2690        6.8167677E-18
   102.4305        6.8159137E-18
   102.5920        6.8163322E-18
   102.7535        6.8179820E-18
   102.9150        6.8202319E-18
   103.0765        6.8222048E-18
   103.2380        6.8232896E-18
   103.3995        6.8234869E-18
   103.5610        6.8233405E-18
   103.7225        6.8235084E-18
   103.8840        6.8242876E-18
   104.0455        6.8254304E-18
   104.2070        6.8263382E-18
   104.3685        6.8264586E-18
   104.5300        6.8255834E-18
   104.6915        6.8239034E-18
   104.8530        6.8218636E-18
   105.0145        6.8199863E-18
   105.1760        6.8187405E-18
   105.3375        6.8184672E-18
   105.4990        6.8192865E-18
   105.6605        6.8210174E-18
   105.8220        6.8231746E-18
   105.9835        6.8251115E-18
   106.1450        6.8262828E-18
   106.3065        6.8264863E-18
   106.4680        6.8259031E-18
   106.6295        6.8248766E-18
   106.7910        6.8235895E-18
   106.9525        6.8219198E-18
   107.1140        6.8196161E-18
   107.2755        6.8166883E-18
   107.4370        6.8136530E-18
   107.5985        6.8113840E-18
   107.7600        6.8106197E-18
   107.9215        6.8114800E-18
   108.0830        6.8133726E-18
   108.2445        6.8153590E-18
   108.4060        6.8167193E-18
   108.5675        6.8173240E-18
   108.7290        6.8175837E-18
   108.8905        6.8180610E-18
   109.0520        6.8190598E-18
   109.2135        6.8204607E-18
   109.3750        6.8218764E-18
   109.5365        6.8229559E-18
   109.6980        6.8235936E-18
   109.8595        6.8239199E-18
   110.0210        6.8241577E-18
   110.1825        6.8244936E-18
   110.3440        6.8250453E-18
   110.5055        6.8258481E-18
   110.6670        6.8267923E-18
   110.8285        6.8275517E-18
   110.9900        6.8276435E-18
   111.1515        6.8266885E-18
   111.3130        6.8247475E-18
   111.4745        6.8224405E-18
   111.6360        6.8206948E-18
   111.7975        6.8202096E-18
   111.9590        6.8210091E-18
   112.1205        6.8224074E-18
   112.2820        6.8234464E-18
   112.4435        6.8235188E-18
   112.6050        6.8227391E-18
   112.7665        6.8218189E-18
   112.9280        6.8215571E-18
   113.0895        6.8223255E-18
   113.2510        6.8239237E-18
   113.4125        6.8258531E-18
   113.5740        6.8277279E-18
   113.7355        6.8294736E-18
   113.8970        6.8311830E-18
   114.0585        6.8328138E-18
   114.2200        6.8340479E-18
   114.3815        6.8344413E-18
   114.5430        6.8337315E-18
   114.7045        6.8320333E-18
   114.8660        6.8297731E-18
   115.0275        6.8274487E-18
   115.1890        6.8254237E-18
   115.3505        6.8238873E-18
   115.5120        6.8229455E-18
   115.6735        6.8226862E-18
   115.8350        6.8231130E-18
   115.9965        6.8240324E-18
   116.1580        6.8250317E-18
   116.3195        6.8256570E-18
   116.4810        6.8256930E-18
   116.6425        6.8253042E-18
   116.8040        6.8248770E-18
   116.9655        6.8246561E-18
   117.1270        6.8244725E-18
   117.2885        6.8238372E-18
   117.4500        6.8223781E-18
   117.6115        6.8202675E-18
   117.7730        6.8182757E-18
   117.9345        6.8173364E-18
   118.0960        6.8179196E-18
   118.2575        6.8196538E-18
   118.4190        6.8214826E-18
   118.5805        6.8222519E-18
   118.7420        6.8213499E-18