  -27.90000        6.2427614E-18
  -27.73850        6.2454754E-18
  -27.57700        6.2498252E-18
  -27.41550        6.2544032E-18
  -27.25400        6.2583298E-18
  -27.09250        6.2616679E-18
  -26.93100        6.2651367E-18
  -26.76950        6.2693905E-18
  -26.60800        6.2744210E-18
  -26.44650        6.2795267E-18
  -26.28500        6.2838459E-18
  -26.12350        6.2870243E-18
  -25.96200        6.2895042E-18
  -25.80050        6.2921967E-18
  -25.63900        6.2957953E-18
  -25.47750        6.3002418E-18
  -25.31600        6.3047723E-18
  -25.15450        6.3085020E-18
  -24.99300        6.3111205E-18
  -24.83150        6.3131413E-18
  -24.67000        6.3155103E-18
  -24.50850        6.3188662E-18
  -24.34700        6.3230158E-18
  -24.18550        6.3270565E-18
  -24.02400        6.3300439E-18
  -23.86250        6.3317127E-18
  -23.70100        6.3327074E-18
  -23.53950        6.3341335E-18
  -23.37800        6.3367693E-18
  -23.21650        6.3405032E-18
  -23.05500        6.3444149E-18
  -22.89350        6.3474337E-18
  -22.73200        6.3490947E-18
  -22.57050        6.3498433E-18
  -22.40900        6.3506742E-18
  -22.24750        6.3523881E-18
  -22.08600        6.3550161E-18
  -21.92450        6.3578520E-18
  -21.76300        6.3600428E-18
  -21.60150        6.3612724E-18
  -21.44000        6.3619979E-18
  -21.27850        6.3630525E-18
  -21.11700        6.3649422E-18
  -20.95550        6.3673911E-18
  -20.79400        6.3695149E-18
  -20.63250        6.3705050E-18
  -20.47100        6.3703061E-18
  -20.30950        6.3697688E-18
  -20.14800        6.3701448E-18
  -19.98650        6.3722653E-18
  -19.82500        6.3759942E-18
  -19.66350        6.3803356E-18
  -19.50200        6.3841159E-18
  -19.34050        6.3867446E-18
  -19.17900        6.3884974E-18
  -19.01750        6.3901468E-18
  -18.85600        6.3922322E-18
  -18.69450        6.3945603E-18
  -18.53300        6.3963180E-18
  -18.37150        6.3967246E-18
  -18.21000        6.3957067E-18
  -18.04850        6.3940660E-18
  -17.88700        6.3930031E-18
  -17.72550        6.3933460E-18
  -17.56400        6.3950599E-18
  -17.40250        6.3973896E-18
  -17.24100        6.3995085E-18
  -17.07950        6.4011641E-18
  -16.91800        6.4028292E-18
  -16.75650        6.4052499E-18
  -16.59500        6.4087410E-18
  -16.43350        6.4127802E-18
  -16.27200        6.4162456E-18
  -16.11050        6.4181552E-18
  -15.94900        6.4183707E-18
  -15.78750        6.4177507E-18
  -15.62600        6.4175956E-18
  -15.46450        6.4187913E-18
  -15.30300        6.4212447E-18
  -15.14150        6.4240315E-18
  -14.98000        6.4261098E-18
  -14.81850        6.4270672E-18
  -14.65700        6.4273522E-18
  -14.49550        6.4278572E-18
  -14.33400        6.4292038E-18
  -14.17250        6.4312834E-18
  -14.01100        6.4333947E-18
  -13.84950        6.4348489E-18
  -13.68800        6.4355520E-18
  -13.52650        6.4361277E-18
  -13.36500        6.4374645E-18
  -13.20350        6.4400320E-18
  -13.04200        6.4435107E-18
  -12.88050        6.4470172E-18
  -12.71900        6.4497837E-18
  -12.55750        6.4517701E-18
  -12.39600        6.4537252E-18
  -12.23450        6.4566257E-18
  -12.07300        6.4609101E-18
  -11.91150        6.4660808E-18
  -11.75000        6.4709880E-18
  -11.58850        6.4745912E-18
  -11.42700        6.4766327E-18
  -11.26550        6.4777329E-18
  -11.10400        6.4788471E-18
  -10.94250        6.4805031E-18
  -10.78100        6.4823816E-18
  -10.61950        6.4835496E-18
  -10.45800        6.4831662E-18
  -10.29650        6.4811379E-18
  -10.13500        6.4782441E-18
  -9.973500        6.4756314E-18
  -9.812000        6.4740689E-18
  -9.650500        6.4735027E-18
  -9.489000        6.4732359E-18
  -9.327500        6.4725832E-18
  -9.166000        6.4714674E-18
  -9.004500        6.4704921E-18
  -8.843000        6.4704417E-18
  -8.681500        6.4716055E-18
  -8.520000        6.4734729E-18
  -8.358500        6.4750606E-18
  -8.197000        6.4756339E-18
  -8.035500        6.4752799E-18
  -7.874000        6.4748985E-18
  -7.712500        6.4756045E-18
  -7.551000        6.4779678E-18
  -7.389500        6.4816392E-18
  -7.228000        6.4856328E-18
  -7.066500        6.4890437E-18
  -6.905000        6.4916721E-18
  -6.743500        6.4940949E-18
  -6.582000        6.4971348E-18
  -6.420500        6.5011487E-18
  -6.259000        6.5056858E-18
  -6.097500        6.5097915E-18
  -5.936000        6.5127321E-18
  -5.774500        6.5145763E-18
  -5.613000        6.5161769E-18
  -5.451500        6.5185550E-18
  -5.290000        6.5221467E-18
  -5.128500        6.5264749E-18
  -4.967000        6.5304942E-18
  -4.805500        6.5333438E-18
  -4.644000        6.5349522E-18
  -4.482500        6.5360462E-18
  -4.321000        6.5375641E-18
  -4.159500        6.5399157E-18
  -3.998000        6.5426372E-18
  -3.836500        6.5447026E-18
  -3.675000        6.5452688E-18
  -3.513500        6.5443010E-18
  -3.352000        6.5426140E-18
  -3.190500        6.5412947E-18
  -3.029000        6.5409452E-18
  -2.867500        6.5413095E-18
  -2.706000        6.5415577E-18
  -2.544500        6.5409878E-18
  -2.383000        6.5395960E-18
  -2.221500        6.5380852E-18
  -2.060000        6.5373320E-18
  -1.898500        6.5377357E-18
  -1.737000        6.5389657E-18
  -1.575500        6.5402843E-18
  -1.414000        6.5411875E-18
  -1.252500        6.5418480E-18
  -1.091000        6.5429941E-18
 -0.9295000        6.5452999E-18
 -0.7680000        6.5487467E-18
 -0.6065000        6.5524583E-18
 -0.4450000        6.5551954E-18
 -0.2835000        6.5561732E-18
 -0.1220000        6.5556177E-18
  3.9500002E-02    6.5546276E-18
  0.2010000        6.5544299E-18
  0.3625000        6.5555581E-18
  0.5240000        6.5575541E-18
  0.6855000        6.5594008E-18
  0.8470000        6.5603488E-18
   1.008500        6.5605105E-18
   1.170000        6.5607876E-18
   1.331500        6.5621996E-18
   1.493000        6.5651199E-18
   1.654500        6.5689841E-18
   1.816000        6.5726882E-18
   1.977500        6.5753546E-18
   2.139000        6.5769209E-18
   2.300500        6.5781108E-18
   2.462000        6.5798272E-18
   2.623500        6.5824320E-18
   2.785000        6.5854632E-18
   2.946500        6.5879878E-18
   3.108000        6.5893253E-18
   3.269500        6.5895511E-18
   3.431000        6.5894047E-18
   3.592500        6.5896694E-18
   3.754000        6.5905218E-18
   3.915500        6.5913771E-18
   4.077000        6.5913531E-18
   4.238500        6.5900061E-18
   4.400000        6.5877719E-18
   4.561500        6.5857734E-18
   4.723000        6.5851203E-18
   4.884500        6.5862168E-18
   5.046000        6.5885726E-18
   5.207500        6.5912440E-18
   5.369000        6.5935625E-18
   5.530500        6.5955920E-18
   5.692000        6.5979710E-18
   5.853500        6.6012764E-18
   6.015000        6.6054094E-18
   6.176500        6.6095201E-18
   6.338000        6.6125484E-18
   6.499500        6.6139927E-18
   6.661000        6.6142983E-18
   6.822500        6.6145489E-18
   6.984000        6.6156673E-18
   7.145500        6.6177133E-18
   7.307000        6.6198094E-18
   7.468500        6.6207615E-18
   7.630000        6.6199231E-18
   7.791500        6.6176831E-18
   7.953000        6.6152223E-18
   8.114500        6.6137280E-18
   8.276000        6.6136225E-18
   8.437500        6.6143674E-18
   8.599000        6.6149551E-18
   8.760500        6.6147214E-18
   8.922000        6.6138711E-18
   9.083500        6.6133334E-18
   9.245000        6.6140799E-18
   9.406500        6.6164188E-18
   9.568000        6.6197949E-18
   9.729500        6.6232252E-18
   9.891000        6.6259959E-18
   10.05250        6.6280820E-18
   10.21400        6.6299978E-18
   10.37550        6.6322270E-18
   10.53700        6.6347404E-18
   10.69850        6.6369808E-18
   10.86000        6.6383399E-18
   11.02150        6.6387192E-18
   11.18300        6.6387096E-18
   11.34450        6.6392002E-18
   11.50600        6.6406899E-18
   11.66750        6.6428253E-18
   11.82900        6.6445582E-18
   11.99050        6.6448622E-18
   12.15200        6.6435069E-18
   12.31350        6.6413132E-18
   12.47500        6.6396659E-18
   12.63650        6.6396009E-18
   12.79800        6.6411345E-18
   12.95950        6.6432993E-18
   13.12100        6.6448755E-18
   13.28250        6.6452688E-18
   13.44400        6.6448945E-18
   13.60550        6.6448109E-18
   13.76700        6.6458904E-18
   13.92850        6.6481540E-18
   14.09000        6.6507551E-18
   14.25150        6.6525984E-18
   14.41300        6.6531460E-18
   14.57450        6.6527982E-18
   14.73600        6.6525988E-18
   14.89750        6.6534843E-18
   15.05900        6.6556429E-18
   15.22050        6.6584507E-18
   15.38200        6.6610034E-18
   15.54350        6.6628170E-18
   15.70500        6.6641392E-18
   15.86650        6.6656431E-18
   16.02800        6.6677681E-18
   16.18950        6.6702459E-18
   16.35100        6.6722183E-18
   16.51250        6.6728552E-18
   16.67400        6.6720053E-18
   16.83550        6.6703745E-18
   16.99700        6.6690697E-18
   17.15850        6.6688624E-18
   17.32000        6.6697016E-18
   17.48150        6.6708423E-18
   17.64300        6.6714768E-18
   17.80450        6.6713845E-18
   17.96600        6.6710971E-18
   18.12750        6.6714503E-18
   18.28900        6.6728660E-18
   18.45050        6.6749302E-18
   18.61200        6.6766371E-18
   18.77350        6.6771322E-18
   18.93500        6.6764063E-18
   19.09650        6.6753939E-18
   19.25800        6.6753591E-18
   19.41950        6.6770118E-18
   19.58100        6.6800008E-18
   19.74250        6.6831545E-18
   19.90400        6.6853014E-18
   20.06550        6.6860728E-18
   20.22700        6.6861025E-18
   20.38850        6.6865075E-18
   20.55000        6.6880332E-18
   20.71150        6.6904924E-18
   20.87300        6.6928999E-18
   21.03450        6.6941882E-18
   21.19600        6.6939773E-18
   21.35750        6.6928296E-18
   21.51900        6.6918213E-18
   21.68050        6.6917638E-18
   21.84200        6.6926654E-18
   22.00350        6.6938164E-18
   22.16500        6.6943983E-18
   22.32650        6.6941163E-18
   22.48800        6.6933697E-18
   22.64950        6.6928540E-18
   22.81100        6.6929574E-18
   22.97250        6.6934483E-18
   23.13400        6.6937134E-18
   23.29550        6.6933354E-18
   23.45700        6.6925326E-18
   23.61850        6.6920769E-18
   23.78000        6.6927200E-18
   23.94150        6.6945687E-18
   24.10300        6.6968977E-18
   24.26450        6.6985996E-18
   24.42600        6.6989801E-18
   24.58750        6.6983076E-18
   24.74900        6.6976856E-18
   24.91050        6.6983047E-18
   25.07200        6.7005997E-18
   25.23350        6.7039333E-18
   25.39500        6.7070534E-18
   25.55650        6.7089832E-18
   25.71800        6.7097024E-18
   25.87950        6.7101077E-18
   26.04100        6.7113043E-18
   26.20250        6.7137560E-18
   26.36400        6.7169241E-18
   26.52550        6.7196476E-18
   26.68700        6.7209703E-18
   26.84850        6.7208168E-18
   27.01000        6.7200207E-18
   27.17150        6.7197200E-18
   27.33300        6.7205575E-18
   27.49450        6.7222747E-18
   27.65600        6.7239721E-18
   27.81750        6.7248080E-18
   27.97900        6.7245801E-18
   28.14050        6.7237715E-18
   28.30200        6.7230461E-18
   28.46350        6.7226424E-18
   28.62500        6.7221647E-18
   28.78650        6.7209397E-18
   28.94800        6.7186471E-18
   29.10950        6.7156945E-18
   29.27100        6.7130285E-18
   29.43250        6.7115036E-18
   29.59400        6.7112939E-18
   29.75550        6.7118030E-18
   29.91700        6.7121347E-18
   30.07850        6.7117911E-18
   30.24000        6.7110400E-18
   30.40150        6.7106880E-18
   30.56300        6.7114172E-18
   30.72450        6.7131956E-18
   30.88600        6.7152483E-18
   31.04750        6.7166358E-18
   31.20900        6.7170267E-18
   31.37050        6.7170573E-18
   31.53200        6.7179672E-18
   31.69350        6.7207449E-18
   31.85500        6.7253928E-18
   32.01650        6.7308567E-18
   32.17800        6.7356809E-18
   32.33950        6.7389189E-18
   32.50100        6.7406526E-18
   32.66250        6.7417809E-18
   32.82400        6.7432516E-18
   32.98550        6.7453270E-18
   33.14700        6.7474057E-18
   33.30850        6.7485121E-18
   33.47000        6.7480671E-18
   33.63150        6.7463560E-18
   33.79300        6.7443518E-18
   33.95450        6.7430246E-18
   34.11600        6.7426714E-18
   34.27750        6.7427578E-18
   34.43900        6.7423872E-18
   34.60050        6.7410199E-18
   34.76200        6.7388854E-18
   34.92350        6.7367913E-18
   35.08500        6.7355059E-18
   35.24650        6.7352110E-18
   35.40800        6.7354596E-18
   35.56950        6.7356378E-18
   35.73100        6.7355415E-18
   35.89250        6.7355866E-18
   36.05400        6.7364778E-18
   36.21550        6.7385851E-18
   36.37700        6.7415245E-18
   36.53850        6.7443133E-18
   36.70000        6.7460136E-18
   36.86150        6.7464069E-18
   37.02300        6.7461898E-18
   37.18450        6.7464975E-18
   37.34600        6.7480882E-18
   37.50750        6.7507781E-18
   37.66900        6.7535649E-18
   37.83050        6.7553512E-18
   37.99200        6.7557478E-18
   38.15350        6.7553371E-18
   38.31500        6.7552201E-18
   38.47650        6.7561730E-18
   38.63800        6.7580652E-18
   38.79950        6.7599495E-18
   38.96100        6.7607750E-18
   39.12250        6.7601786E-18
   39.28400        6.7587886E-18
   39.44550        6.7578108E-18
   39.60700        6.7582157E-18
   39.76850        6.7600988E-18
   39.93000        6.7626610E-18
   40.09150        6.7647980E-18
   40.25300        6.7658357E-18
   40.41450        6.7658729E-18
   40.57600        6.7655057E-18
   40.73750        6.7652145E-18
   40.89900        6.7649229E-18
   41.06050        6.7641069E-18
   41.22200        6.7623405E-18
   41.38350        6.7598110E-18
   41.54500        6.7573476E-18
   41.70650        6.7559158E-18
   41.86800        6.7559418E-18
   42.02950        6.7570172E-18
   42.19100        6.7582124E-18
   42.35250        6.7587948E-18
   42.51400        6.7587836E-18
   42.67550        6.7589341E-18
   42.83700        6.7601195E-18
   42.99850        6.7625919E-18
   43.16000        6.7656810E-18
   43.32150        6.7682101E-18
   43.48300        6.7693380E-18
   43.64450        6.7692135E-18
   43.80600        6.7689203E-18
   43.96750        6.7697177E-18
   44.12900        6.7721227E-18
   44.29050        6.7755059E-18
   44.45200        6.7785065E-18
   44.61350        6.7799677E-18
   44.77500        6.7797042E-18
   44.93650        6.7785652E-18
   45.09800        6.7777744E-18
   45.25950        6.7780610E-18
   45.42100        6.7792253E-18
   45.58250        6.7804111E-18
   45.74400        6.7808553E-18
   45.90550        6.7805029E-18
   46.06700        6.7800326E-18
   46.22850        6.7802824E-18
   46.39000        6.7815377E-18
   46.55150        6.7832508E-18
   46.71300        6.7844196E-18
   46.87450        6.7843348E-18
   47.03600        6.7831110E-18
   47.19750        6.7815857E-18
   47.35900        6.7806629E-18
   47.52050        6.7806294E-18
   47.68200        6.7809855E-18
   47.84350        6.7809020E-18
   48.00500        6.7799396E-18
   48.16650        6.7784440E-18
   48.32800        6.7772913E-18
   48.48950        6.7771863E-18
   48.65100        6.7780780E-18
   48.81250        6.7791546E-18
   48.97400        6.7794623E-18
   49.13550        6.7786909E-18
   49.29700        6.7775184E-18
   49.45850        6.7772248E-18
   49.62000        6.7788179E-18
   49.78150        6.7823152E-18
   49.94300        6.7867113E-18
   50.10450        6.7906789E-18
   50.26600        6.7934772E-18
   50.42750        6.7953909E-18
   50.58900        6.7973720E-18
   50.75050        6.8001637E-18
   50.91200        6.8035895E-18
   51.07350        6.8065508E-18
   51.23500        6.8077490E-18
   51.39650        6.8065992E-18
   51.55800        6.8036606E-18
   51.71950        6.8002919E-18
   51.88100        6.7977694E-18
   52.04250        6.7965254E-18
   52.20400        6.7960018E-18
   52.36550        6.7952006E-18
   52.52700        6.7934710E-18
   52.68850        6.7909626E-18
   52.85000        6.7884260E-18
   53.01150        6.7865839E-18
   53.17300        6.7855905E-18
   53.33450        6.7850102E-18
   53.49600        6.7843075E-18
   53.65750        6.7834071E-18
   53.81900        6.7828372E-18
   53.98050        6.7833248E-18
   54.14200        6.7851707E-18
   54.30350        6.7879368E-18
   54.46500        6.7907153E-18
   54.62650        6.7927960E-18
   54.78800        6.7942051E-18
   54.94950        6.7956767E-18
   55.11100        6.7980441E-18
   55.27250        6.8015066E-18
   55.43400        6.8053373E-18
   55.59550        6.8082941E-18
   55.75700        6.8094728E-18
   55.91850        6.8089902E-18
   56.08000        6.8079636E-18
   56.24150        6.8077734E-18
   56.40300        6.8091101E-18
   56.56450        6.8115015E-18
   56.72600        6.8136625E-18
   56.88750        6.8144165E-18
   57.04900        6.8135165E-18
   57.21050        6.8117802E-18
   57.37200        6.8104704E-18
   57.53350        6.8104017E-18
   57.69500        6.8114283E-18
   57.85650        6.8126479E-18
   58.01800        6.8131182E-18
   58.17950        6.8125326E-18
   58.34100        6.8113629E-18
   58.50250        6.8104096E-18
   58.66400        6.8101470E-18
   58.82550        6.8103757E-18
   58.98700        6.8104497E-18
   59.14850        6.8098748E-18
   59.31000        6.8087838E-18
   59.47150        6.8078896E-18
   59.63300        6.8079512E-18
   59.79450        6.8091696E-18
   59.95600        6.8110134E-18
   60.11750        6.8126161E-18
   60.27900        6.8134317E-18
   60.44050        6.8136294E-18
   60.60200        6.8139007E-18
   60.76350        6.8148474E-18
   60.92500        6.8164220E-18
   61.08650        6.8178898E-18
   61.24800        6.8183485E-18
   61.40950        6.8174233E-18
   61.57100        6.8156093E-18
   61.73250        6.8139727E-18
   61.89400        6.8134168E-18
   62.05550        6.8140467E-18
   62.21700        6.8151043E-18
   62.37850        6.8155493E-18
   62.54000        6.8148487E-18
   62.70150        6.8133965E-18
   62.86300        6.8122290E-18
   63.02450        6.8122459E-18
   63.18600        6.8135368E-18
   63.34750        6.8153160E-18
   63.50900        6.8165282E-18
   63.67050        6.8166647E-18
   63.83200        6.8161800E-18
   63.99350        6.8161982E-18
   64.15500        6.8177231E-18
   64.31650        6.8209301E-18
   64.47800        6.8250284E-18
   64.63950        6.8287937E-18
   64.80100        6.8313546E-18
   64.96250        6.8326860E-18
   65.12400        6.8334693E-18
   65.28550        6.8344681E-18
   65.44700        6.8359004E-18
   65.60850        6.8372810E-18
   65.77000        6.8378323E-18
   65.93150        6.8371139E-18
   66.09300        6.8353677E-18
   66.25450        6.8333159E-18
   66.41600        6.8316053E-18
   66.57750        6.8303517E-18
   66.73900        6.8291626E-18
   66.90050        6.8275963E-18
   67.06200        6.8256657E-18
   67.22350        6.8239493E-18
   67.38500        6.8231974E-18
   67.54650        6.8237247E-18
   67.70800        6.8250834E-18
   67.86950        6.8263006E-18
   68.03100        6.8265491E-18
   68.19250        6.8257670E-18
   68.35400        6.8247372E-18
   68.51550        6.8245316E-18
   68.67700        6.8256971E-18
   68.83850        6.8277920E-18
   69.00000        6.8296420E-18
   69.16150        6.8301647E-18
   69.32300        6.8291721E-18
   69.48450        6.8275446E-18
   69.64600        6.8266401E-18
   69.80750        6.8273656E-18
   69.96900        6.8295725E-18
   70.13050        6.8322137E-18
   70.29200        6.8341034E-18
   70.45350        6.8347266E-18
   70.61500        6.8345083E-18
   70.77650        6.8343858E-18
   70.93800        6.8350480E-18
   71.09950        6.8364186E-18
   71.26100        6.8377707E-18
   71.42250        6.8383505E-18
   71.58400        6.8380114E-18
   71.74550        6.8373463E-18
   71.90700        6.8372210E-18
   72.06850        6.8380780E-18
   72.23000        6.8395863E-18
   72.39150        6.8409177E-18
   72.55300        6.8414351E-18
   72.71450        6.8412250E-18
   72.87600        6.8410306E-18
   73.03750        6.8416220E-18
   73.19900        6.8431085E-18
   73.36050        6.8447558E-18
   73.52200        6.8454829E-18
   73.68350        6.8446751E-18
   73.84500        6.8426903E-18
   74.00650        6.8406538E-18
   74.16800        6.8396732E-18
   74.32950        6.8400442E-18
   74.49100        6.8410521E-18
   74.65250        6.8415256E-18
   74.81400        6.8407365E-18
   74.97550        6.8389651E-18
   75.13700        6.8372830E-18
   75.29850        6.8367214E-18
   75.46000        6.8374505E-18
   75.62150        6.8386247E-18
   75.78300        6.8390147E-18
   75.94450        6.8379539E-18
   76.10600        6.8358603E-18
   76.26750        6.8339425E-18
   76.42900        6.8333179E-18
   76.59050        6.8342254E-18
   76.75200        6.8359236E-18
   76.91350        6.8373356E-18
   77.07500        6.8379245E-18
   77.23650        6.8381172E-18
   77.39800        6.8389552E-18
   77.55950        6.8412448E-18
   77.72100        6.8448604E-18
   77.88250        6.8487531E-18
   78.04400        6.8516648E-18
   78.20550        6.8529999E-18
   78.36700        6.8531819E-18
   78.52850        6.8532166E-18
   78.69000        6.8538217E-18
   78.85150        6.8548164E-18
   79.01300        6.8552635E-18
   79.17450        6.8542543E-18
   79.33600        6.8516983E-18
   79.49750        6.8484831E-18
   79.65900        6.8458642E-18
   79.82050        6.8445709E-18
   79.98200        6.8443223E-18
   80.14350        6.8441342E-18
   80.30500        6.8431742E-18
   80.46650        6.8414847E-18
   80.62800        6.8400003E-18
   80.78950        6.8398274E-18
   80.95100        6.8413366E-18
   81.11250        6.8437867E-18
   81.27400        6.8457976E-18
   81.43550        6.8463436E-18
   81.59700        6.8455019E-18
   81.75850        6.8443774E-18
   81.92000        6.8442450E-18
   82.08150        6.8455751E-18
   82.24300        6.8476948E-18
   82.40450        6.8493516E-18
   82.56600        6.8497238E-18
   82.72750        6.8490844E-18
   82.88900        6.8485906E-18
   83.05050        6.8493657E-18
   83.21200        6.8515962E-18
   83.37350        6.8543391E-18
   83.53500        6.8561792E-18
   83.69650        6.8562466E-18
   83.85800        6.8547978E-18
   84.01950        6.8529465E-18
   84.18100        6.8517616E-18
   84.34250        6.8514535E-18
   84.50400        6.8512789E-18
   84.66550        6.8502354E-18
   84.82700        6.8479723E-18
   84.98850        6.8451764E-18
   85.15000        6.8431035E-18
   85.31150        6.8426179E-18
   85.47300        6.8435204E-18
   85.63450        6.8447008E-18
   85.79600        6.8450118E-18
   85.95750        6.8441648E-18
   86.11900        6.8429426E-18
   86.28050        6.8425576E-18
   86.44200        6.8436792E-18
   86.60350        6.8458961E-18
   86.76500        6.8480438E-18
   86.92650        6.8491365E-18
   87.08800        6.8491688E-18
   87.24950        6.8491531E-18
   87.41100        6.8503426E-18
   87.57250        6.8532336E-18
   87.73400        6.8571288E-18
   87.89550        6.8606008E-18
   88.05700        6.8625116E-18
   88.21850        6.8627892E-18
   88.38000        6.8623685E-18
   88.54150        6.8623450E-18
   88.70300        6.8630344E-18
   88.86450        6.8636982E-18
   89.02600        6.8631457E-18
   89.18750        6.8607295E-18
   89.34900        6.8569249E-18
   89.51050        6.8530412E-18
   89.67200        6.8502896E-18
   89.83350        6.8489512E-18
   89.99500        6.8482907E-18
   90.15650        6.8472712E-18
   90.31800        6.8454895E-18
   90.47950        6.8435907E-18
   90.64100        6.8428181E-18
   90.80250        6.8440465E-18
   90.96400        6.8470541E-18
   91.12550        6.8506155E-18
   91.28700        6.8533564E-18
   91.44850        6.8547171E-18
   91.61000        6.8552672E-18
   91.77150        6.8561411E-18
   91.93300        6.8580506E-18
   92.09450        6.8606712E-18
   92.25600        6.8628880E-18
   92.41750        6.8636862E-18
   92.57900        6.8629583E-18
   92.74050        6.8615868E-18
   92.90200        6.8607353E-18
   93.06350        6.8609346E-18
   93.22500        6.8616828E-18
   93.38650        6.8618685E-18
   93.54800        6.8606745E-18
   93.70950        6.8582413E-18
   93.87100        6.8555633E-18
   94.03250        6.8537067E-18
   94.19400        6.8529734E-18
   94.35550        6.8526872E-18
   94.51700        6.8517848E-18
   94.67850        6.8497474E-18
   94.84000        6.8471195E-18
   95.00150        6.8451785E-18
   95.16300        6.8449936E-18
   95.32450        6.8466211E-18
   95.48600        6.8490745E-18
   95.64750        6.8510924E-18
   95.80900        6.8520883E-18
   95.97050        6.8525404E-18
   96.13200        6.8535181E-18
   96.29350        6.8557498E-18
   96.45500        6.8589800E-18
   96.61650        6.8621183E-18
   96.77800        6.8640630E-18
   96.93950        6.8645320E-18
   97.10100        6.8642545E-18
   97.26250        6.8643678E-18
   97.42400        6.8654973E-18
   97.58550        6.8672493E-18
   97.74700        6.8685252E-18
   97.90850        6.8684028E-18
   98.07000        6.8668845E-18
   98.23150        6.8649043E-18
   98.39300        6.8635845E-18
   98.55450        6.8633496E-18
   98.71600        6.8636093E-18
   98.87750        6.8632731E-18
   99.03900        6.8616646E-18
   99.20050        6.8590921E-18
   99.36200        6.8566138E-18
   99.52350        6.8551994E-18
   99.68500        6.8549653E-18
   99.84650        6.8551051E-18
   100.0080        6.8545612E-18
   100.1695        6.8529068E-18
   100.3310        6.8507173E-18
   100.4925        6.8491440E-18
   100.6540        6.8490129E-18
   100.8155        6.8501668E-18
   100.9770        6.8515858E-18
   101.1385        6.8521921E-18
   101.3000        6.8517124E-18
   101.4615        6.8508902E-18
   101.6230        6.8508707E-18
   101.7845        6.8522434E-18
   101.9460        6.8545190E-18
   102.1075        6.8564753E-18
   102.2690        6.8570919E-18
   102.4305        6.8563309E-18
   102.5920        6.8551373E-18
   102.7535        6.8546720E-18
   102.9150        6.8554148E-18
   103.0765        6.8568351E-18
   103.2380        6.8579026E-18
   103.3995        6.8579965E-18
   103.5610        6.8574753E-18
   103.7225        6.8574406E-18
   103.8840        6.8588683E-18
   104.0455        6.8617870E-18
   104.2070        6.8651863E-18
   104.3685        6.8677320E-18
   104.5300        6.8687618E-18
   104.6915        6.8687705E-18
   104.8530        6.8689864E-18
   105.0145        6.8703694E-18
   105.1760        6.8728175E-18
   105.3375        6.8752097E-18
   105.4990        6.8762474E-18
   105.6605        6.8754148E-18
   105.8220        6.8733072E-18
   105.9835        6.8710891E-18
   106.1450        6.8695534E-18
   106.3065        6.8685343E-18
   106.4680        6.8671277E-18
   106.6295        6.8644977E-18
   106.7910        6.8606079E-18
   106.9525        6.8562734E-18
   107.1140        6.8525189E-18
   107.2755        6.8497772E-18
   107.4370        6.8476042E-18
   107.5985        6.8451619E-18
   107.7600        6.8420778E-18
   107.9215        6.8389564E-18
   108.0830        6.8370638E-18
   108.2445        6.8373757E-18
   108.4060        6.8397484E-18
   108.5675        6.8429083E-18
   108.7290        6.8453389E-18
   108.8905        6.8464106E-18
   109.0520        6.8468771E-18
   109.2135        6.8483230E-18
   109.3750        6.8519692E-18
   109.5365        6.8577132E-18
   109.6980        6.8641292E-18
   109.8595        6.8693954E-18
   110.0210        6.8724618E-18
   110.1825        6.8736136E-18
   110.3440        6.8740537E-18
   110.5055        6.8748920E-18
   110.6670        6.8763239E-18
   110.8285        6.8775982E-18
   110.9900        6.8777351E-18
   111.1515        6.8763777E-18
   111.3130        6.8740686E-18
   111.4745        6.8717781E-18
   111.6360        6.8701039E-18
   111.7975        6.8688590E-18
   111.9590        6.8673854E-18
   112.1205        6.8653050E-18
   112.2820        6.8630199E-18
   112.4435        6.8614834E-18
   112.6050        6.8614036E-18
   112.7665        6.8625431E-18
   112.9280        6.8637536E-18
   113.0895        6.8637880E-18
   113.2510        6.8622933E-18
   113.4125        6.8601906E-18
   113.5740        6.8590937E-18
   113.7355        6.8601389E-18
   113.8970        6.8630886E-18
   114.0585        6.8664031E-18
   114.2200        6.8682630E-18
   114.3815        6.8678308E-18
   114.5430        6.8658067E-18
   114.7045        6.8638810E-18
   114.8660        6.8634823E-18
   115.0275        6.8647765E-18
   115.1890        6.8666430E-18
   115.3505        6.8676100E-18
   115.5120        6.8669838E-18
   115.6735        6.8653063E-18
   115.8350        6.8638393E-18
   115.9965        6.8635423E-18
   116.1580        6.8643653E-18
   116.3195        6.8653700E-18
   116.4810        6.8655342E-18
   116.6425        6.8645490E-18
   116.8040        6.8629939E-18
   116.9655        6.8617928E-18
   117.1270        6.8614363E-18
   117.2885        6.8616311E-18
   117.4500        6.8616547E-18
   117.6115        6.8610963E-18
   117.7730        6.8603242E-18
   117.9345        6.8602348E-18
   118.0960        6.8614462E-18
   118.2575        6.8636139E-18
   118.4190        6.8654911E-18
   118.5805        6.8657670E-18
   118.7420        6.8640597E-18