  -27.90000        8.6851590E-18
  -27.73850        8.7129142E-18
  -27.57700        8.7566853E-18
  -27.41550        8.7993960E-18
  -27.25400        8.8269783E-18
  -27.09250        8.8350830E-18
  -26.93100        8.8307900E-18
  -26.76950        8.8284921E-18
  -26.60800        8.8421041E-18
  -26.44650        8.8775712E-18
  -26.28500        8.9295371E-18
  -26.12350        8.9838440E-18
  -25.96200        9.0246000E-18
  -25.80050        9.0421867E-18
  -25.63900        9.0381360E-18
  -25.47750        9.0243825E-18
  -25.31600        9.0172762E-18
  -25.15450        9.0293960E-18
  -24.99300        9.0633220E-18
  -24.83150        9.1104994E-18
  -24.67000        9.1557322E-18
  -24.50850        9.1849970E-18
  -24.34700        9.1925591E-18
  -24.18550        9.1837984E-18
  -24.02400        9.1723453E-18
  -23.86250        9.1730186E-18
  -23.70100        9.1942192E-18
  -23.53950        9.2336600E-18
  -23.37800        9.2796008E-18
  -23.21650        9.3169149E-18
  -23.05500        9.3348540E-18
  -22.89350        9.3325279E-18
  -22.73200        9.3193071E-18
  -22.57050        9.3099616E-18
  -22.40900        9.3170531E-18
  -22.24750        9.3445022E-18
  -22.08600        9.3855990E-18
  -21.92450        9.4264816E-18
  -21.76300        9.4532583E-18
  -21.60150        9.4591139E-18
  -21.44000        9.4477567E-18
  -21.27850        9.4314612E-18
  -21.11700        9.4247363E-18
  -20.95550        9.4368991E-18
  -20.79400        9.4673733E-18
  -20.63250        9.5061184E-18
  -20.47100        9.5389376E-18
  -20.30950        9.5548973E-18
  -20.14800        9.5520220E-18
  -19.98650        9.5383015E-18
  -19.82500        9.5275118E-18
  -19.66350        9.5320009E-18
  -19.50200        9.5561794E-18
  -19.34050        9.5940949E-18
  -19.17900        9.6323669E-18
  -19.01750        9.6569747E-18
  -18.85600        9.6604290E-18
  -18.69450        9.6456241E-18
  -18.53300        9.6243862E-18
  -18.37150        9.6114483E-18
  -18.21000        9.6169598E-18
  -18.04850        9.6413724E-18
  -17.88700        9.6753339E-18
  -17.72550        9.7046558E-18
  -17.56400        9.7177683E-18
  -17.40250        9.7118300E-18
  -17.24100        9.6942929E-18
  -17.07950        9.6791009E-18
  -16.91800        9.6794467E-18
  -16.75650        9.7008086E-18
  -16.59500        9.7378762E-18
  -16.43350        9.7769953E-18
  -16.27200        9.8029298E-18
  -16.11050        9.8065223E-18
  -15.94900        9.7893343E-18
  -15.78750        9.7628844E-18
  -15.62600        9.7428534E-18
  -15.46450        9.7411924E-18
  -15.30300        9.7601745E-18
  -15.14150        9.7914213E-18
  -14.98000        9.8204181E-18
  -14.81850        9.8342047E-18
  -14.65700        9.8282846E-18
  -14.49550        9.8091941E-18
  -14.33400        9.7913642E-18
  -14.17250        9.7898339E-18
  -14.01100        9.8125144E-18
  -13.84950        9.8559587E-18
  -13.68800        9.9068204E-18
  -13.52650        9.9483101E-18
  -13.36500        9.9683974E-18
  -13.20350        9.9656230E-18
  -13.04200        9.9495790E-18
  -12.88050        9.9358148E-18
  -12.71900        9.9377710E-18
  -12.55750        9.9598419E-18
  -12.39600        9.9950980E-18
  -12.23450        1.0028821E-17
  -12.07300        1.0046061E-17
  -11.91150        1.0039341E-17
  -11.75000        1.0012618E-17
  -11.58850        9.9794245E-18
  -11.42700        9.9561808E-18
  -11.26550        9.9540243E-18
  -11.10400        9.9733307E-18
  -10.94250        1.0003694E-17
  -10.78100        1.0029362E-17
  -10.61950        1.0037368E-17
  -10.45800        1.0024205E-17
  -10.29650        9.9976755E-18
  -10.13500        9.9729725E-18
  -9.973500        9.9650002E-18
  -9.812000        9.9808456E-18
  -9.650500        1.0016222E-17
  -9.489000        1.0057658E-17
  -9.327500        1.0089320E-17
  -9.166000        1.0100956E-17
  -9.004500        1.0092926E-17
  -8.843000        1.0075806E-17
  -8.681500        1.0064773E-17
  -8.520000        1.0071711E-17
  -8.358500        1.0099062E-17
  -8.197000        1.0138576E-17
  -8.035500        1.0175555E-17
  -7.874000        1.0196425E-17
  -7.712500        1.0195728E-17
  -7.551000        1.0178955E-17
  -7.389500        1.0159809E-17
  -7.228000        1.0153292E-17
  -7.066500        1.0168169E-17
  -6.905000        1.0202652E-17
  -6.743500        1.0245484E-17
  -6.582000        1.0281795E-17
  -6.420500        1.0300722E-17
  -6.259000        1.0300847E-17
  -6.097500        1.0290682E-17
  -5.936000        1.0283998E-17
  -5.774500        1.0292445E-17
  -5.613000        1.0319295E-17
  -5.451500        1.0357554E-17
  -5.290000        1.0393438E-17
  -5.128500        1.0413388E-17
  -4.967000        1.0411058E-17
  -4.805500        1.0390614E-17
  -4.644000        1.0364700E-17
  -4.482500        1.0348074E-17
  -4.321000        1.0350214E-17
  -4.159500        1.0370665E-17
  -3.998000        1.0399505E-17
  -3.836500        1.0422674E-17
  -3.675000        1.0429370E-17
  -3.513500        1.0417707E-17
  -3.352000        1.0395690E-17
  -3.190500        1.0377018E-17
  -3.029000        1.0373892E-17
  -2.867500        1.0390544E-17
  -2.706000        1.0420883E-17
  -2.544500        1.0451477E-17
  -2.383000        1.0468388E-17
  -2.221500        1.0464341E-17
  -2.060000        1.0442546E-17
  -1.898500        1.0415162E-17
  -1.737000        1.0397180E-17
  -1.575500        1.0398832E-17
  -1.414000        1.0420430E-17
  -1.252500        1.0452303E-17
  -1.091000        1.0479870E-17
 -0.9295000        1.0491264E-17
 -0.7680000        1.0483562E-17
 -0.6065000        1.0464409E-17
 -0.4450000        1.0448144E-17
 -0.2835000        1.0448407E-17
 -0.1220000        1.0471006E-17
  3.9500002E-02    1.0510738E-17
  0.2010000        1.0553825E-17
  0.3625000        1.0584791E-17
  0.5240000        1.0594228E-17
  0.6855000        1.0583538E-17
  0.8470000        1.0564144E-17
   1.008500        1.0551604E-17
   1.170000        1.0557581E-17
   1.331500        1.0583825E-17
   1.493000        1.0621208E-17
   1.654500        1.0654361E-17
   1.816000        1.0669532E-17
   1.977500        1.0661665E-17
   2.139000        1.0637070E-17
   2.300500        1.0610311E-17
   2.462000        1.0596884E-17
   2.623500        1.0605413E-17
   2.785000        1.0633353E-17
   2.946500        1.0668406E-17
   3.108000        1.0694918E-17
   3.269500        1.0702017E-17
   3.431000        1.0689308E-17
   3.592500        1.0667230E-17
   3.754000        1.0651847E-17
   3.915500        1.0656713E-17
   4.077000        1.0685950E-17
   4.238500        1.0732051E-17
   4.400000        1.0779543E-17
   4.561500        1.0812644E-17
   4.723000        1.0823029E-17
   4.884500        1.0813769E-17
   5.046000        1.0797472E-17
   5.207500        1.0789599E-17
   5.369000        1.0800412E-17
   5.530500        1.0829663E-17
   5.692000        1.0866738E-17
   5.853500        1.0896158E-17
   6.015000        1.0905615E-17
   6.176500        1.0892409E-17
   6.338000        1.0865000E-17
   6.499500        1.0838870E-17
   6.661000        1.0828818E-17
   6.822500        1.0841588E-17
   6.984000        1.0872593E-17
   7.145500        1.0908349E-17
   7.307000        1.0933371E-17
   7.468500        1.0937971E-17
   7.630000        1.0923013E-17
   7.791500        1.0899208E-17
   7.953000        1.0881388E-17
   8.114500        1.0880711E-17
   8.276000        1.0898848E-17
   8.437500        1.0927106E-17
   8.599000        1.0950954E-17
   8.760500        1.0957601E-17
   8.922000        1.0942703E-17
   9.083500        1.0912769E-17
   9.245000        1.0882012E-17
   9.406500        1.0865269E-17
   9.568000        1.0870620E-17
   9.729500        1.0895484E-17
   9.891000        1.0928158E-17
   10.05250        1.0953968E-17
   10.21400        1.0962838E-17
   10.37550        1.0954367E-17
   10.53700        1.0937827E-17
   10.69850        1.0927138E-17
   10.86000        1.0933450E-17
   11.02150        1.0959214E-17
   11.18300        1.0996797E-17
   11.34450        1.1032361E-17
   11.50600        1.1052975E-17
   11.66750        1.1053273E-17
   11.82900        1.1038217E-17
   11.99050        1.1020540E-17
   12.15200        1.1014199E-17
   12.31350        1.1027203E-17
   12.47500        1.1057527E-17
   12.63650        1.1094188E-17
   12.79800        1.1122936E-17
   12.95950        1.1133612E-17
   13.12100        1.1125393E-17
   13.28250        1.1107204E-17
   13.44400        1.1093112E-17
   13.60550        1.1095055E-17
   13.76700        1.1116673E-17
   13.92850        1.1151419E-17
   14.09000        1.1185920E-17
   14.25150        1.1206887E-17
   14.41300        1.1207983E-17
   14.57450        1.1193099E-17
   14.73600        1.1174332E-17
   14.89750        1.1165683E-17
   15.05900        1.1175701E-17
   15.22050        1.1202913E-17
   15.38200        1.1236401E-17
   15.54350        1.1261282E-17
   15.70500        1.1266306E-17
   15.86650        1.1249666E-17
   16.02800        1.1220039E-17
   16.18950        1.1192297E-17
   16.35100        1.1180088E-17
   16.51250        1.1189062E-17
   16.67400        1.1214236E-17
   16.83550        1.1242831E-17
   16.99700        1.1261109E-17
   17.15850        1.1261691E-17
   17.32000        1.1247557E-17
   17.48150        1.1230664E-17
   17.64300        1.1225840E-17
   17.80450        1.1243069E-17
   17.96600        1.1282135E-17
   18.12750        1.1332364E-17
   18.28900        1.1377658E-17
   18.45050        1.1404282E-17
   18.61200        1.1407473E-17
   18.77350        1.1393534E-17
   18.93500        1.1376370E-17
   19.09650        1.1370224E-17
   19.25800        1.1382368E-17
   19.41950        1.1409438E-17
   19.58100        1.1439297E-17
   19.74250        1.1457445E-17
   19.90400        1.1454669E-17
   20.06550        1.1432019E-17
   20.22700        1.1400518E-17
   20.38850        1.1375758E-17
   20.55000        1.1370111E-17
   20.71150        1.1386541E-17
   20.87300        1.1417150E-17
   21.03450        1.1447213E-17
   21.19600        1.1462636E-17
   21.35750        1.1457035E-17
   21.51900        1.1434861E-17
   21.68050        1.1409012E-17
   21.84200        1.1394181E-17
   22.00350        1.1399380E-17
   22.16500        1.1423420E-17
   22.32650        1.1455649E-17
   22.48800        1.1481502E-17
   22.64950        1.1490009E-17
   22.81100        1.1479414E-17
   22.97250        1.1458031E-17
   23.13400        1.1439965E-17
   23.29550        1.1437871E-17
   23.45700        1.1456490E-17
   23.61850        1.1490244E-17
   23.78000        1.1526084E-17
   23.94150        1.1550123E-17
   24.10300        1.1554644E-17
   24.26450        1.1541922E-17
   24.42600        1.1522939E-17
   24.58750        1.1511674E-17
   24.74900        1.1517924E-17
   24.91050        1.1542324E-17
   25.07200        1.1576093E-17
   25.23350        1.1605623E-17
   25.39500        1.1619493E-17
   25.55650        1.1614316E-17
   25.71800        1.1596401E-17
   25.87950        1.1578409E-17
   26.04100        1.1572749E-17
   26.20250        1.1585140E-17
   26.36400        1.1611671E-17
   26.52550        1.1640866E-17
   26.68700        1.1659672E-17
   26.84850        1.1660282E-17
   27.01000        1.1644244E-17
   27.17150        1.1621749E-17
   27.33300        1.1606470E-17
   27.49450        1.1608608E-17
   27.65600        1.1629750E-17
   27.81750        1.1662154E-17
   27.97900        1.1692813E-17
   28.14050        1.1710162E-17
   28.30200        1.1709963E-17
   28.46350        1.1697328E-17
   28.62500        1.1683857E-17
   28.78650        1.1681415E-17
   28.94800        1.1695761E-17
   29.10950        1.1723380E-17
   29.27100        1.1753158E-17
   29.43250        1.1772061E-17
   29.59400        1.1771903E-17
   29.75550        1.1753713E-17
   29.91700        1.1727419E-17
   30.07850        1.1707005E-17
   30.24000        1.1703584E-17
   30.40150        1.1719944E-17
   30.56300        1.1749325E-17
   30.72450        1.1779079E-17
   30.88600        1.1797300E-17
   31.04750        1.1799012E-17
   31.20900        1.1788718E-17
   31.37050        1.1777969E-17
   31.53200        1.1779218E-17
   31.69350        1.1799098E-17
   31.85500        1.1834647E-17
   32.01650        1.1874444E-17
   32.17800        1.1904131E-17
   32.33950        1.1913532E-17
   32.50100        1.1901726E-17
   32.66250        1.1877480E-17
   32.82400        1.1854799E-17
   32.98550        1.1845842E-17
   33.14700        1.1854828E-17
   33.30850        1.1876034E-17
   33.47000        1.1896909E-17
   33.63150        1.1904725E-17
   33.79300        1.1893315E-17
   33.95450        1.1866477E-17
   34.11600        1.1836244E-17
   34.27750        1.1816912E-17
   34.43900        1.1817846E-17
   34.60050        1.1838751E-17
   34.76200        1.1869835E-17
   34.92350        1.1896797E-17
   35.08500        1.1908109E-17
   35.24650        1.1900895E-17
   35.40800        1.1882373E-17
   35.56950        1.1866138E-17
   35.73100        1.1865173E-17
   35.89250        1.1885153E-17
   36.05400        1.1921464E-17
   36.21550        1.1961466E-17
   36.37700        1.1990832E-17
   36.53850        1.2000740E-17
   36.70000        1.1992234E-17
   36.86150        1.1975550E-17
   37.02300        1.1964766E-17
   37.18450        1.1970524E-17
   37.34600        1.1994563E-17
   37.50750        1.2028855E-17
   37.66900        1.2059756E-17
   37.83050        1.2075041E-17
   37.99200        1.2070197E-17
   38.15350        1.2050758E-17
   38.31500        1.2029497E-17
   38.47650        1.2019950E-17
   38.63800        1.2029554E-17
   38.79950        1.2055923E-17
   38.96100        1.2088130E-17
   39.12250        1.2112311E-17
   39.28400        1.2118689E-17
   39.44550        1.2106452E-17
   39.60700        1.2084006E-17
   39.76850        1.2064509E-17
   39.93000        1.2059057E-17
   40.09150        1.2070990E-17
   40.25300        1.2094287E-17
   40.41450        1.2116801E-17
   40.57600        1.2126670E-17
   40.73750        1.2118575E-17
   40.89900        1.2096608E-17
   41.06050        1.2072297E-17
   41.22200        1.2058785E-17
   41.38350        1.2064169E-17
   41.54500        1.2087421E-17
   41.70650        1.2118949E-17
   41.86800        1.2145512E-17
   42.02950        1.2156909E-17
   42.19100        1.2151021E-17
   42.35250        1.2134629E-17
   42.51400        1.2119626E-17
   42.67550        1.2116645E-17
   42.83700        1.2129412E-17
   42.99850        1.2152762E-17
   43.16000        1.2175357E-17
   43.32150        1.2185668E-17
   43.48300        1.2178138E-17
   43.64450        1.2156273E-17
   43.80600        1.2131088E-17
   43.96750        1.2115659E-17
   44.12900        1.2118584E-17
   44.29050        1.2139732E-17
   44.45200        1.2170447E-17
   44.61350        1.2198098E-17
   44.77500        1.2212600E-17
   44.93650        1.2211549E-17
   45.09800        1.2201309E-17
   45.25950        1.2193482E-17
   45.42100        1.2198632E-17
   45.58250        1.2220512E-17
   45.74400        1.2253838E-17
   45.90550        1.2286791E-17
   46.06700        1.2306970E-17
   46.22850        1.2307734E-17
   46.39000        1.2291643E-17
   46.55150        1.2269199E-17
   46.71300        1.2253529E-17
   46.87450        1.2253701E-17
   47.03600        1.2270171E-17
   47.19750        1.2294645E-17
   47.35900        1.2314493E-17
   47.52050        1.2319395E-17
   47.68200        1.2306816E-17
   47.84350        1.2283463E-17
   48.00500        1.2261972E-17
   48.16650        1.2254523E-17
   48.32800        1.2266659E-17
   48.48950        1.2294495E-17
   48.65100        1.2326756E-17
   48.81250        1.2350590E-17
   48.97400        1.2358174E-17
   49.13550        1.2350709E-17
   49.29700        1.2337745E-17
   49.45850        1.2332168E-17
   49.62000        1.2343406E-17
   49.78150        1.2372371E-17
   49.94300        1.2410709E-17
   50.10450        1.2444798E-17
   50.26600        1.2462452E-17
   50.42750        1.2458929E-17
   50.58900        1.2439201E-17
   50.75050        1.2415337E-17
   50.91200        1.2400351E-17
   51.07350        1.2401659E-17
   51.23500        1.2417474E-17
   51.39650        1.2437970E-17
   51.55800        1.2450585E-17
   51.71950        1.2446716E-17
   51.88100        1.2426367E-17
   52.04250        1.2398342E-17
   52.20400        1.2375888E-17
   52.36550        1.2370001E-17
   52.52700        1.2383838E-17
   52.68850        1.2411080E-17
   52.85000        1.2439079E-17
   53.01150        1.2455185E-17
   53.17300        1.2453034E-17
   53.33450        1.2435591E-17
   53.49600        1.2413455E-17
   53.65750        1.2399315E-17
   53.81900        1.2401447E-17
   53.98050        1.2419565E-17
   54.14200        1.2445146E-17
   54.30350        1.2465989E-17
   54.46500        1.2472639E-17
   54.62650        1.2463344E-17
   54.78800        1.2445007E-17
   54.94950        1.2429655E-17
   55.11100        1.2428259E-17
   55.27250        1.2445077E-17
   55.43400        1.2475415E-17
   55.59550        1.2507928E-17
   55.75700        1.2530292E-17
   55.91850        1.2535316E-17
   56.08000        1.2524403E-17
   56.24150        1.2506609E-17
   56.40300        1.2493846E-17
   56.56450        1.2494715E-17
   56.72600        1.2510160E-17
   56.88750        1.2533162E-17
   57.04900        1.2552571E-17
   57.21050        1.2559093E-17
   57.37200        1.2550269E-17
   57.53350        1.2531887E-17
   57.69500        1.2515085E-17
   57.85650        1.2510651E-17
   58.01800        1.2523490E-17
   58.17950        1.2550108E-17
   58.34100        1.2580407E-17
   58.50250        1.2602847E-17
   58.66400        1.2610292E-17
   58.82550        1.2603534E-17
   58.98700        1.2590710E-17
   59.14850        1.2582923E-17
   59.31000        1.2588392E-17
   59.47150        1.2608111E-17
   59.63300        1.2635283E-17
   59.79450        1.2658782E-17
   59.95600        1.2668867E-17
   60.11750        1.2662176E-17
   60.27900        1.2643456E-17
   60.44050        1.2623101E-17
   60.60200        1.2611814E-17
   60.76350        1.2615107E-17
   60.92500        1.2630504E-17
   61.08650        1.2648878E-17
   61.24800        1.2659275E-17
   61.40950        1.2654728E-17
   61.57100        1.2636066E-17
   61.73250        1.2611715E-17
   61.89400        1.2593573E-17
   62.05550        1.2591040E-17
   62.21700        1.2606276E-17
   62.37850        1.2633147E-17
   62.54000        1.2660395E-17
   62.70150        1.2677406E-17
   62.86300        1.2679585E-17
   63.02450        1.2670575E-17
   63.18600        1.2660146E-17
   63.34750        1.2658883E-17
   63.50900        1.2672402E-17
   63.67050        1.2698146E-17
   63.83200        1.2726415E-17
   63.99350        1.2745165E-17
   64.15500        1.2746111E-17
   64.31650        1.2729014E-17
   64.47800        1.2701922E-17
   64.63950        1.2677263E-17
   64.80100        1.2665732E-17
   64.96250        1.2671122E-17
   65.12400        1.2688683E-17
   65.28550        1.2707862E-17
   65.44700        1.2717957E-17
   65.60850        1.2713798E-17
   65.77000        1.2698494E-17
   65.93150        1.2681859E-17
   66.09300        1.2675297E-17
   66.25450        1.2685797E-17
   66.41600        1.2712141E-17
   66.57750        1.2745296E-17
   66.73900        1.2772814E-17
   66.90050        1.2785012E-17
   67.06200        1.2779762E-17
   67.22350        1.2763476E-17
   67.38500        1.2747767E-17
   67.54650        1.2743497E-17
   67.70800        1.2755278E-17
   67.86950        1.2779193E-17
   68.03100        1.2804911E-17
   68.19250        1.2821081E-17
   68.35400        1.2821221E-17
   68.51550        1.2807082E-17
   68.67700        1.2787763E-17
   68.83850        1.2775029E-17
   69.00000        1.2777256E-17
   69.16150        1.2795094E-17
   69.32300        1.2821106E-17
   69.48450        1.2843548E-17
   69.64600        1.2852376E-17
   69.80750        1.2844388E-17
   69.96900        1.2824869E-17
   70.13050        1.2804880E-17
   70.29200        1.2795603E-17
   70.45350        1.2802640E-17
   70.61500        1.2823214E-17
   70.77650        1.2847686E-17
   70.93800        1.2864590E-17
   71.09950        1.2866573E-17
   71.26100        1.2854154E-17
   71.42250        1.2835405E-17
   71.58400        1.2821715E-17
   71.74550        1.2821863E-17
   71.90700        1.2837479E-17
   72.06850        1.2862214E-17
   72.23000        1.2885041E-17
   72.39150        1.2895968E-17
   72.55300        1.2891204E-17
   72.71450        1.2875101E-17
   72.87600        1.2857901E-17
   73.03750        1.2850441E-17
   73.19900        1.2858559E-17
   73.36050        1.2880065E-17
   73.52200        1.2905846E-17
   73.68350        1.2924518E-17
   73.84500        1.2928247E-17
   74.00650        1.2916727E-17
   74.16800        1.2897269E-17
   74.32950        1.2880957E-17
   74.49100        1.2876863E-17
   74.65250        1.2887352E-17
   74.81400        1.2906909E-17
   74.97550        1.2925131E-17
   75.13700        1.2932301E-17
   75.29850        1.2924641E-17
   75.46000        1.2906482E-17
   75.62150        1.2888175E-17
   75.78300        1.2880832E-17
   75.94450        1.2890611E-17
   76.10600        1.2915525E-17
   76.26750        1.2946437E-17
   76.42900        1.2971703E-17
   76.59050        1.2983054E-17
   76.75200        1.2979638E-17
   76.91350        1.2968170E-17
   77.07500        1.2959136E-17
   77.23650        1.2961084E-17
   77.39800        1.2975968E-17
   77.55950        1.2997990E-17
   77.72100        1.3016521E-17
   77.88250        1.3021597E-17
   78.04400        1.3009168E-17
   78.20550        1.2983369E-17
   78.36700        1.2954649E-17
   78.52850        1.2934672E-17
   78.69000        1.2930589E-17
   78.85150        1.2941605E-17
   79.01300        1.2959580E-17
   79.17450        1.2973394E-17
   79.33600        1.2974803E-17
   79.49750        1.2962803E-17
   79.65900        1.2944214E-17
   79.82050        1.2930157E-17
   79.98200        1.2930212E-17
   80.14350        1.2947304E-17
   80.30500        1.2975985E-17
   80.46650        1.3005075E-17
   80.62800        1.3023322E-17
   80.78950        1.3025152E-17
   80.95100        1.3013509E-17
   81.11250        1.2998283E-17
   81.27400        1.2991136E-17
   81.43550        1.2999417E-17
   81.59700        1.3022341E-17
   81.75850        1.3051404E-17
   81.92000        1.3074808E-17
   82.08150        1.3083578E-17
   82.24300        1.3076188E-17
   82.40450        1.3059331E-17
   82.56600        1.3044439E-17
   82.72750        1.3041791E-17
   82.88900        1.3055274E-17
   83.05050        1.3080447E-17
   83.21200        1.3106894E-17
   83.37350        1.3123614E-17
   83.53500        1.3124681E-17
   83.69650        1.3112276E-17
   83.85800        1.3095550E-17
   84.01950        1.3085917E-17
   84.18100        1.3091156E-17
   84.34250        1.3111357E-17
   84.50400        1.3138785E-17
   84.66550        1.3161772E-17
   84.82700        1.3170644E-17
   84.98850        1.3162657E-17
   85.15000        1.3143375E-17
   85.31150        1.3123785E-17
   85.47300        1.3114623E-17
   85.63450        1.3120859E-17
   85.79600        1.3139212E-17
   85.95750        1.3160000E-17
   86.11900        1.3172338E-17
   86.28050        1.3169963E-17
   86.44200        1.3154587E-17
   86.60350        1.3135033E-17
   86.76500        1.3122593E-17
   86.92650        1.3125074E-17
   87.08800        1.3142667E-17
   87.24950        1.3167761E-17
   87.41100        1.3188799E-17
   87.57250        1.3196116E-17
   87.73400        1.3186737E-17
   87.89550        1.3165701E-17
   88.05700        1.3143276E-17
   88.21850        1.3129581E-17
   88.38000        1.3129418E-17
   88.54150        1.3139955E-17
   88.70300        1.3152425E-17
   88.86450        1.3156921E-17
   89.02600        1.3147779E-17
   89.18750        1.3126764E-17
   89.34900        1.3102401E-17
   89.51050        1.3085777E-17
   89.67200        1.3084940E-17
   89.83350        1.3100769E-17
   89.99500        1.3126470E-17
   90.15650        1.3150981E-17
   90.31800        1.3164570E-17
   90.47950        1.3163740E-17
   90.64100        1.3152888E-17
   90.80250        1.3141801E-17
   90.96400        1.3140322E-17
   91.12550        1.3152968E-17
   91.28700        1.3176392E-17
   91.44850        1.3201040E-17
   91.61000        1.3216174E-17
   91.77150        1.3215597E-17
   91.93300        1.3201046E-17
   92.09450        1.3181434E-17
   92.25600        1.3168319E-17
   92.41750        1.3169971E-17
   92.57900        1.3187166E-17
   92.74050        1.3212898E-17
   92.90200        1.3236140E-17
   93.06350        1.3247666E-17
   93.22500        1.3244863E-17
   93.38650        1.3233054E-17
   93.54800        1.3222655E-17
   93.70950        1.3223691E-17
   93.87100        1.3240519E-17
   94.03250        1.3269488E-17
   94.19400        1.3300726E-17
   94.35550        1.3323114E-17
   94.51700        1.3329924E-17
   94.67850        1.3322171E-17
   94.84000        1.3307999E-17
   95.00150        1.3298373E-17
   95.16300        1.3301315E-17
   95.32450        1.3317663E-17
   95.48600        1.3340541E-17
   95.64750        1.3358868E-17
   95.80900        1.3363114E-17
   95.97050        1.3350322E-17
   96.13200        1.3325796E-17
   96.29350        1.3300525E-17
   96.45500        1.3285653E-17
   96.61650        1.3286843E-17
   96.77800        1.3301479E-17
   96.93950        1.3320176E-17
   97.10100        1.3331796E-17
   97.26250        1.3329345E-17
   97.42400        1.3313654E-17
   97.58550        1.3292913E-17
   97.74700        1.3278339E-17
   97.90850        1.3278242E-17
   98.07000        1.3293626E-17
   98.23150        1.3317581E-17
   98.39300        1.3338782E-17
   98.55450        1.3347262E-17
   98.71600        1.3339455E-17
   98.87750        1.3319951E-17
   99.03900        1.3299077E-17
   99.20050        1.3287604E-17
   99.36200        1.3291332E-17
   99.52350        1.3308305E-17
   99.68500        1.3330041E-17
   99.84650        1.3346091E-17
   100.0080        1.3349549E-17
   100.1695        1.3340670E-17
   100.3310        1.3326730E-17
   100.4925        1.3318208E-17
   100.6540        1.3323244E-17
   100.8155        1.3343260E-17
   100.9770        1.3372005E-17
   101.1385        1.3398597E-17
   101.3000        1.3412967E-17
   101.4615        1.3410920E-17
   101.6230        1.3396183E-17
   101.7845        1.3378350E-17
   101.9460        1.3367848E-17
   102.1075        1.3370529E-17
   102.2690        1.3384751E-17
   102.4305        1.3402456E-17
   102.5920        1.3413649E-17
   102.7535        1.3411892E-17
   102.9150        1.3397872E-17
   103.0765        1.3379151E-17
   103.2380        1.3366250E-17
   103.3995        1.3367148E-17
   103.5610        1.3383111E-17
   103.7225        1.3408044E-17
   103.8840        1.3431634E-17
   104.0455        1.3444653E-17
   104.2070        1.3443592E-17
   104.3685        1.3432276E-17
   104.5300        1.3419630E-17
   104.6915        1.3414833E-17
   104.8530        1.3422394E-17
   105.0145        1.3439734E-17
   105.1760        1.3458517E-17
   105.3375        1.3469022E-17
   105.4990        1.3465273E-17
   105.6605        1.3448230E-17
   105.8220        1.3425391E-17
   105.9835        1.3406987E-17
   106.1450        1.3400754E-17
   106.3065        1.3407990E-17
   106.4680        1.3422961E-17
   106.6295        1.3435978E-17
   106.7910        1.3438571E-17
   106.9525        1.3428035E-17
   107.1140        1.3408973E-17
   107.2755        1.3390972E-17
   107.4370        1.3383644E-17
   107.5985        1.3391597E-17
   107.7600        1.3411988E-17
   107.9215        1.3435958E-17
   108.0830        1.3453170E-17
   108.2445        1.3457127E-17
   108.4060        1.3448461E-17
   108.5675        1.3434484E-17
   108.7290        1.3425249E-17
   108.8905        1.3428163E-17
   109.0520        1.3444000E-17
   109.2135        1.3466404E-17
   109.3750        1.3485153E-17
   109.5365        1.3491513E-17
   109.6980        1.3482863E-17
   109.8595        1.3464212E-17
   110.0210        1.3445770E-17
   110.1825        1.3437844E-17
   110.3440        1.3445665E-17
   110.5055        1.3466828E-17
   110.6670        1.3492642E-17
   110.8285        1.3512711E-17
   110.9900        1.3520338E-17
   111.1515        1.3515958E-17
   111.3130        1.3506789E-17
   111.4745        1.3502914E-17
   111.6360        1.3511822E-17
   111.7975        1.3534295E-17
   111.9590        1.3563802E-17
   112.1205        1.3589705E-17
   112.2820        1.3602645E-17
   112.4435        1.3599303E-17
   112.6050        1.3584061E-17
   112.7665        1.3566733E-17
   112.9280        1.3557514E-17
   113.0895        1.3561802E-17
   113.2510        1.3577562E-17
   113.4125        1.3596577E-17
   113.5740        1.3608916E-17
   113.7355        1.3608231E-17
   113.8970        1.3595100E-17
   114.0585        1.3576694E-17
   114.2200        1.3562967E-17
   114.3815        1.3561367E-17
   114.5430        1.3572865E-17
   114.7045        1.3591356E-17
   114.8660        1.3606778E-17
   115.0275        1.3610299E-17
   115.1890        1.3598872E-17
   115.3505        1.3576787E-17
   115.5120        1.3553425E-17
   115.6735        1.3538411E-17
   115.8350        1.3536724E-17
   115.9965        1.3546286E-17
   116.1580        1.3559280E-17
   116.3195        1.3566454E-17
   116.4810        1.3562115E-17
   116.6425        1.3547213E-17
   116.8040        1.3528871E-17
   116.9655        1.3516632E-17
   117.1270        1.3517389E-17
   117.2885        1.3531676E-17
   117.4500        1.3553293E-17
   117.6115        1.3572458E-17
   117.7730        1.3580837E-17
   117.9345        1.3575799E-17
   118.0960        1.3561686E-17
   118.2575        1.3547435E-17
   118.4190        1.3541814E-17
   118.5805        1.3548776E-17
   118.7420        1.3565360E-17