  -27.90000       -2.7138295E-18
  -27.73850       -2.7190612E-18
  -27.57700       -2.7273113E-18
  -27.41550       -2.7353622E-18
  -27.25400       -2.7405625E-18
  -27.09250       -2.7420922E-18
  -26.93100       -2.7412865E-18
  -26.76950       -2.7408603E-18
  -26.60800       -2.7434380E-18
  -26.44650       -2.7501390E-18
  -26.28500       -2.7599487E-18
  -26.12350       -2.7701942E-18
  -25.96200       -2.7778774E-18
  -25.80050       -2.7811884E-18
  -25.63900       -2.7804260E-18
  -25.47750       -2.7778481E-18
  -25.31600       -2.7765384E-18
  -25.15450       -2.7788595E-18
  -24.99300       -2.7852809E-18
  -24.83150       -2.7941801E-18
  -24.67000       -2.8026964E-18
  -24.50850       -2.8082008E-18
  -24.34700       -2.8096312E-18
  -24.18550       -2.8080096E-18
  -24.02400       -2.8058967E-18
  -23.86250       -2.8060646E-18
  -23.70100       -2.8100785E-18
  -23.53950       -2.8175033E-18
  -23.37800       -2.8261426E-18
  -23.21650       -2.8331676E-18
  -23.05500       -2.8365663E-18
  -22.89350       -2.8361660E-18
  -22.73200       -2.8337132E-18
  -22.57050       -2.8319717E-18
  -22.40900       -2.8333039E-18
  -22.24750       -2.8384622E-18
  -22.08600       -2.8462030E-18
  -21.92450       -2.8539259E-18
  -21.76300       -2.8590040E-18
  -21.60150       -2.8601300E-18
  -21.44000       -2.8579816E-18
  -21.27850       -2.8548716E-18
  -21.11700       -2.8535578E-18
  -20.95550       -2.8558266E-18
  -20.79400       -2.8615838E-18
  -20.63250       -2.8689207E-18
  -20.47100       -2.8751224E-18
  -20.30950       -2.8780912E-18
  -20.14800       -2.8774398E-18
  -19.98650       -2.8746973E-18
  -19.82500       -2.8725098E-18
  -19.66350       -2.8732522E-18
  -19.50200       -2.8777827E-18
  -19.34050       -2.8849771E-18
  -19.17900       -2.8922920E-18
  -19.01750       -2.8970620E-18
  -18.85600       -2.8978606E-18
  -18.69450       -2.8952231E-18
  -18.53300       -2.8913643E-18
  -18.37150       -2.8890406E-18
  -18.21000       -2.8901465E-18
  -18.04850       -2.8947680E-18
  -17.88700       -2.9011631E-18
  -17.72550       -2.9066901E-18
  -17.56400       -2.9091828E-18
  -17.40250       -2.9080877E-18
  -17.24100       -2.9047638E-18
  -17.07950       -2.9017934E-18
  -16.91800       -2.9016551E-18
  -16.75650       -2.9054256E-18
  -16.59500       -2.9121843E-18
  -16.43350       -2.9194283E-18
  -16.27200       -2.9242987E-18
  -16.11050       -2.9250132E-18
  -15.94900       -2.9217676E-18
  -15.78750       -2.9166550E-18
  -15.62600       -2.9126235E-18
  -15.46450       -2.9119953E-18
  -15.30300       -2.9153067E-18
  -15.14150       -2.9210674E-18
  -14.98000       -2.9265665E-18
  -14.81850       -2.9293245E-18
  -14.65700       -2.9284320E-18
  -14.49550       -2.9250815E-18
  -14.33400       -2.9219952E-18
  -14.17250       -2.9220407E-18
  -14.01100       -2.9267402E-18
  -13.84950       -2.9354473E-18
  -13.68800       -2.9456216E-18
  -13.52650       -2.9540630E-18
  -13.36500       -2.9584820E-18
  -13.20350       -2.9585932E-18
  -13.04200       -2.9561853E-18
  -12.88050       -2.9541374E-18
  -12.71900       -2.9548964E-18
  -12.55750       -2.9591975E-18
  -12.39600       -2.9656805E-18
  -12.23450       -2.9715810E-18
  -12.07300       -2.9741457E-18
  -11.91150       -2.9720471E-18
  -11.75000       -2.9660846E-18
  -11.58850       -2.9588244E-18
  -11.42700       -2.9533574E-18
  -11.26550       -2.9518017E-18
  -11.10400       -2.9542904E-18
  -10.94250       -2.9589510E-18
  -10.78100       -2.9628909E-18
  -10.61950       -2.9636965E-18
  -10.45800       -2.9606934E-18
  -10.29650       -2.9553317E-18
  -10.13500       -2.9504978E-18
  -9.973500       -2.9490823E-18
  -9.812000       -2.9525252E-18
  -9.650500       -2.9600766E-18
  -9.489000       -2.9691505E-18
  -9.327500       -2.9766132E-18
  -9.166000       -2.9803475E-18
  -9.004500       -2.9802906E-18
  -8.843000       -2.9784174E-18
  -8.681500       -2.9776591E-18
  -8.520000       -2.9803272E-18
  -8.358500       -2.9868613E-18
  -8.197000       -2.9955512E-18
  -8.035500       -3.0033869E-18
  -7.874000       -3.0075950E-18
  -7.712500       -3.0070615E-18
  -7.551000       -3.0029136E-18
  -7.389500       -2.9979594E-18
  -7.228000       -2.9952832E-18
  -7.066500       -2.9967178E-18
  -6.905000       -3.0019822E-18
  -6.743500       -3.0088945E-18
  -6.582000       -3.0145503E-18
  -6.420500       -3.0168305E-18
  -6.259000       -3.0154745E-18
  -6.097500       -3.0121799E-18
  -5.936000       -3.0096931E-18
  -5.774500       -3.0103756E-18
  -5.613000       -3.0149635E-18
  -5.451500       -3.0221670E-18
  -5.290000       -3.0292953E-18
  -5.128500       -3.0336007E-18
  -4.967000       -3.0336655E-18
  -4.805500       -3.0301268E-18
  -4.644000       -3.0253742E-18
  -4.482500       -3.0223567E-18
  -4.321000       -3.0231040E-18
  -4.159500       -3.0277081E-18
  -3.998000       -3.0342900E-18
  -3.836500       -3.0399806E-18
  -3.675000       -3.0424234E-18
  -3.513500       -3.0410154E-18
  -3.352000       -3.0372399E-18
  -3.190500       -3.0338925E-18
  -3.029000       -3.0335931E-18
  -2.867500       -3.0373561E-18
  -2.706000       -3.0439852E-18
  -2.544500       -3.0506411E-18
  -2.383000       -3.0542991E-18
  -2.221500       -3.0533389E-18
  -2.060000       -3.0484224E-18
  -1.898500       -3.0421846E-18
  -1.737000       -3.0378946E-18
  -1.575500       -3.0377790E-18
  -1.414000       -3.0419025E-18
  -1.252500       -3.0481812E-18
  -1.091000       -3.0535215E-18
 -0.9295000       -3.0554753E-18
 -0.7680000       -3.0535447E-18
 -0.6065000       -3.0494419E-18
 -0.4450000       -3.0461840E-18
 -0.2835000       -3.0465029E-18
 -0.1220000       -3.0514012E-18
  3.9500002E-02   -3.0595932E-18
  0.2010000       -3.0681308E-18
  0.3625000       -3.0738718E-18
  0.5240000       -3.0750565E-18
  0.6855000       -3.0721897E-18
  0.8470000       -3.0677836E-18
   1.008500       -3.0650853E-18
   1.170000       -3.0664270E-18
   1.331500       -3.0720212E-18
   1.493000       -3.0798244E-18
   1.654500       -3.0865444E-18
   1.816000       -3.0893099E-18
   1.977500       -3.0871563E-18
   2.139000       -3.0815675E-18
   2.300500       -3.0757716E-18
   2.462000       -3.0731263E-18
   2.623500       -3.0754000E-18
   2.785000       -3.0818510E-18
   2.946500       -3.0895963E-18
   3.108000       -3.0951159E-18
   3.269500       -3.0961176E-18
   3.431000       -3.0927896E-18
   3.592500       -3.0877548E-18
   3.754000       -3.0847368E-18
   3.915500       -3.0866131E-18
   4.077000       -3.0938910E-18
   4.238500       -3.1044088E-18
   4.400000       -3.1144188E-18
   4.561500       -3.1204899E-18
   4.723000       -3.1212203E-18
   4.884500       -3.1178766E-18
   5.046000       -3.1136429E-18
   5.207500       -3.1118992E-18
   5.369000       -3.1144425E-18
   5.530500       -3.1205719E-18
   5.692000       -3.1274977E-18
   5.853500       -3.1318247E-18
   6.015000       -3.1313303E-18
   6.176500       -3.1261196E-18
   6.338000       -3.1185915E-18
   6.499500       -3.1122511E-18
   6.661000       -3.1099878E-18
   6.822500       -3.1126784E-18
   6.984000       -3.1188022E-18
   7.145500       -3.1252437E-18
   7.307000       -3.1288713E-18
   7.468500       -3.1281018E-18
   7.630000       -3.1236753E-18
   7.791500       -3.1182418E-18
   7.953000       -3.1149705E-18
   8.114500       -3.1158885E-18
   8.276000       -3.1208021E-18
   8.437500       -3.1273722E-18
   8.599000       -3.1323212E-18
   8.760500       -3.1331649E-18
   8.922000       -3.1295622E-18
   9.083500       -3.1235523E-18
   9.245000       -3.1185377E-18
   9.406500       -3.1175211E-18
   9.568000       -3.1215325E-18
   9.729500       -3.1290888E-18
   9.891000       -3.1369909E-18
   10.05250       -3.1420274E-18
   10.21400       -3.1426732E-18
   10.37550       -3.1398661E-18
   10.53700       -3.1364575E-18
   10.69850       -3.1356426E-18
   10.86000       -3.1392352E-18
   11.02150       -3.1467026E-18
   11.18300       -3.1554597E-18
   11.34450       -3.1622517E-18
   11.50600       -3.1648625E-18
   11.66750       -3.1632543E-18
   11.82900       -3.1595566E-18
   11.99050       -3.1569259E-18
   12.15200       -3.1579094E-18
   12.31350       -3.1631382E-18
   12.47500       -3.1710227E-18
   12.63650       -3.1785718E-18
   12.79800       -3.1829118E-18
   12.95950       -3.1827298E-18
   13.12100       -3.1789318E-18
   13.28250       -3.1741867E-18
   13.44400       -3.1715811E-18
   13.60550       -3.1730532E-18
   13.76700       -3.1783894E-18
   13.92850       -3.1853075E-18
   14.09000       -3.1906033E-18
   14.25150       -3.1918034E-18
   14.41300       -3.1884795E-18
   14.57450       -3.1825269E-18
   14.73600       -3.1772340E-18
   14.89750       -3.1755898E-18
   15.05900       -3.1787000E-18
   15.22050       -3.1851555E-18
   15.38200       -3.1917186E-18
   15.54350       -3.1949979E-18
   15.70500       -3.1932429E-18
   15.86650       -3.1872979E-18
   16.02800       -3.1801968E-18
   16.18950       -3.1756001E-18
   16.35100       -3.1759074E-18
   16.51250       -3.1810498E-18
   16.67400       -3.1885997E-18
   16.83550       -3.1951166E-18
   16.99700       -3.1980016E-18
   17.15850       -3.1968630E-18
   17.32000       -3.1936920E-18
   17.48150       -3.1917779E-18
   17.64300       -3.1939582E-18
   17.80450       -3.2011240E-18
   17.96600       -3.2117382E-18
   18.12750       -3.2225888E-18
   18.28900       -3.2303585E-18
   18.45050       -3.2332075E-18
   18.61200       -3.2315814E-18
   18.77350       -3.2278749E-18
   18.93500       -3.2251512E-18
   19.09650       -3.2255751E-18
   19.25800       -3.2293305E-18
   19.41950       -3.2345498E-18
   19.58100       -3.2382901E-18
   19.74250       -3.2380690E-18
   19.90400       -3.2331901E-18
   20.06550       -3.2251844E-18
   20.22700       -3.2171211E-18
   20.38850       -3.2121057E-18
   20.55000       -3.2117256E-18
   20.71150       -3.2152473E-18
   20.87300       -3.2200154E-18
   21.03450       -3.2228603E-18
   21.19600       -3.2218009E-18
   21.35750       -3.2171335E-18
   21.51900       -3.2113070E-18
   21.68050       -3.2076418E-18
   21.84200       -3.2085465E-18
   22.00350       -3.2142173E-18
   22.16500       -3.2225257E-18
   22.32650       -3.2301612E-18
   22.48800       -3.2344065E-18
   22.64950       -3.2345763E-18
   22.81100       -3.2323278E-18
   22.97250       -3.2307030E-18
   23.13400       -3.2324388E-18
   23.29550       -3.2384675E-18
   23.45700       -3.2474098E-18
   23.61850       -3.2562976E-18
   23.78000       -3.2621199E-18
   23.94150       -3.2633485E-18
   24.10300       -3.2606624E-18
   24.26450       -3.2565178E-18
   24.42600       -3.2538394E-18
   24.58750       -3.2545202E-18
   24.74900       -3.2585041E-18
   24.91050       -3.2638928E-18
   25.07200       -3.2679764E-18
   25.23350       -3.2686592E-18
   25.39500       -3.2655598E-18
   25.55650       -3.2602482E-18
   25.71800       -3.2554967E-18
   25.87950       -3.2539168E-18
   26.04100       -3.2566411E-18
   26.20250       -3.2627215E-18
   26.36400       -3.2695705E-18
   26.52550       -3.2742536E-18
   26.68700       -3.2749900E-18
   26.84850       -3.2720926E-18
   27.01000       -3.2678281E-18
   27.17150       -3.2652440E-18
   27.33300       -3.2665424E-18
   27.49450       -3.2718784E-18
   27.65600       -3.2792248E-18
   27.81750       -3.2854187E-18
   27.97900       -3.2878457E-18
   28.14050       -3.2858519E-18
   28.30200       -3.2811014E-18
   28.46350       -3.2766769E-18
   28.62500       -3.2754013E-18
   28.78650       -3.2783143E-18
   28.94800       -3.2841254E-18
   29.10950       -3.2899442E-18
   29.27100       -3.2928522E-18
   29.43250       -3.2914691E-18
   29.59400       -3.2866663E-18
   29.75550       -3.2810899E-18
   29.91700       -3.2777797E-18
   30.07850       -3.2786418E-18
   30.24000       -3.2835567E-18
   30.40150       -3.2905553E-18
   30.56300       -3.2969082E-18
   30.72450       -3.3005392E-18
   30.88600       -3.3010266E-18
   31.04750       -3.2997304E-18
   31.20900       -3.2990111E-18
   31.37050       -3.3009656E-18
   31.53200       -3.3063110E-18
   31.69350       -3.3139475E-18
   31.85500       -3.3214273E-18
   32.01650       -3.3261007E-18
   32.17800       -3.3263964E-18
   32.33950       -3.3226058E-18
   32.50100       -3.3167595E-18
   32.66250       -3.3116290E-18
   32.82400       -3.3093339E-18
   32.98550       -3.3102800E-18
   33.14700       -3.3129924E-18
   33.30850       -3.3149615E-18
   33.47000       -3.3140718E-18
   33.63150       -3.3098453E-18
   33.79300       -3.3038040E-18
   33.95450       -3.2987363E-18
   34.11600       -3.2972284E-18
   34.27750       -3.3002720E-18
   34.43900       -3.3067217E-18
   34.60050       -3.3139078E-18
   34.76200       -3.3190709E-18
   34.92350       -3.3208185E-18
   35.08500       -3.3198019E-18
   35.24650       -3.3182652E-18
   35.40800       -3.3187526E-18
   35.56950       -3.3227103E-18
   35.73100       -3.3297244E-18
   35.89250       -3.3377794E-18
   36.05400       -3.3443349E-18
   36.21550       -3.3476188E-18
   36.37700       -3.3474591E-18
   36.53850       -3.3452541E-18
   36.70000       -3.3431549E-18
   36.86150       -3.3429239E-18
   37.02300       -3.3450557E-18
   37.18450       -3.3485762E-18
   37.34600       -3.3515828E-18
   37.50750       -3.3522324E-18
   37.66900       -3.3496898E-18
   37.83050       -3.3445915E-18
   37.99200       -3.3388132E-18
   38.15350       -3.3346331E-18
   38.31500       -3.3336768E-18
   38.47650       -3.3361456E-18
   38.63800       -3.3407335E-18
   38.79950       -3.3452871E-18
   38.96100       -3.3479263E-18
   39.12250       -3.3480328E-18
   39.28400       -3.3465804E-18
   39.44550       -3.3456033E-18
   39.60700       -3.3470432E-18
   39.76850       -3.3516114E-18
   39.93000       -3.3582875E-18
   40.09150       -3.3647716E-18
   40.25300       -3.3686703E-18
   40.41450       -3.3687762E-18
   40.57600       -3.3657301E-18
   40.73750       -3.3616695E-18
   40.89900       -3.3590620E-18
   41.06050       -3.3593800E-18
   41.22200       -3.3623446E-18
   41.38350       -3.3661544E-18
   41.54500       -3.3685357E-18
   41.70650       -3.3680079E-18
   41.86800       -3.3646701E-18
   42.02950       -3.3600970E-18
   42.19100       -3.3564626E-18
   42.35250       -3.3553854E-18
   42.51400       -3.3571193E-18
   42.67550       -3.3604882E-18
   42.83700       -3.3635573E-18
   42.99850       -3.3646576E-18
   43.16000       -3.3632343E-18
   43.32150       -3.3601113E-18
   43.48300       -3.3570836E-18
   43.64450       -3.3560525E-18
   43.80600       -3.3581291E-18
   43.96750       -3.3631135E-18
   44.12900       -3.3695891E-18
   44.29050       -3.3755810E-18
   44.45200       -3.3794925E-18
   44.61350       -3.3808698E-18
   44.77500       -3.3806092E-18
   44.93650       -3.3804740E-18
   45.09800       -3.3821296E-18
   45.25950       -3.3861863E-18
   45.42100       -3.3917745E-18
   45.58250       -3.3969167E-18
   45.74400       -3.3995483E-18
   45.90550       -3.3986450E-18
   46.06700       -3.3948411E-18
   46.22850       -3.3901619E-18
   46.39000       -3.3869936E-18
   46.55150       -3.3868279E-18
   46.71300       -3.3894859E-18
   46.87450       -3.3932630E-18
   47.03600       -3.3959145E-18
   47.19750       -3.3959280E-18
   47.35900       -3.3933587E-18
   47.52050       -3.3897762E-18
   47.68200       -3.3873706E-18
   47.84350       -3.3877523E-18
   48.00500       -3.3911198E-18
   48.16650       -3.3962169E-18
   48.32800       -3.4010658E-18
   48.48950       -3.4040281E-18
   48.65100       -3.4046200E-18
   48.81250       -3.4036764E-18
   48.97400       -3.4028293E-18
   49.13550       -3.4036158E-18
   49.29700       -3.4066910E-18
   49.45850       -3.4115189E-18
   49.62000       -3.4166635E-18
   49.78150       -3.4204896E-18
   49.94300       -3.4219308E-18
   50.10450       -3.4209605E-18
   50.26600       -3.4185743E-18
   50.42750       -3.4162851E-18
   50.58900       -3.4153613E-18
   50.75050       -3.4161724E-18
   50.91200       -3.4179730E-18
   51.07350       -3.4192753E-18
   51.23500       -3.4186694E-18
   51.39650       -3.4156721E-18
   51.55800       -3.4111332E-18
   51.71950       -3.4069129E-18
   51.88100       -3.4049608E-18
   52.04250       -3.4062663E-18
   52.20400       -3.4102864E-18
   52.36550       -3.4151994E-18
   52.52700       -3.4188942E-18
   52.68850       -3.4201404E-18
   52.85000       -3.4192646E-18
   53.01150       -3.4179239E-18
   53.17300       -3.4180826E-18
   53.33450       -3.4207943E-18
   53.49600       -3.4255216E-18
   53.65750       -3.4304038E-18
   53.81900       -3.4333151E-18
   53.98050       -3.4330839E-18
   54.14200       -3.4301573E-18
   54.30350       -3.4263428E-18
   54.46500       -3.4237994E-18
   54.62650       -3.4238801E-18
   54.78800       -3.4264650E-18
   54.94950       -3.4301081E-18
   55.11100       -3.4328705E-18
   55.27250       -3.4333552E-18
   55.43400       -3.4313894E-18
   55.59550       -3.4280428E-18
   55.75700       -3.4250323E-18
   55.91850       -3.4238476E-18
   56.08000       -3.4250513E-18
   56.24150       -3.4280561E-18
   56.40300       -3.4314436E-18
   56.56450       -3.4336656E-18
   56.72600       -3.4338091E-18
   56.88750       -3.4320720E-18
   57.04900       -3.4297357E-18
   57.21050       -3.4285869E-18
   57.37200       -3.4300322E-18
   57.53350       -3.4343282E-18
   57.69500       -3.4403517E-18
   57.85650       -3.4460921E-18
   58.01800       -3.4496618E-18
   58.17950       -3.4503014E-18
   58.34100       -3.4488100E-18
   58.50250       -3.4471114E-18
   58.66400       -3.4471664E-18
   58.82550       -3.4498254E-18
   58.98700       -3.4542891E-18
   59.14850       -3.4585257E-18
   59.31000       -3.4604191E-18
   59.47150       -3.4589941E-18
   59.63300       -3.4549949E-18
   59.79450       -3.4504671E-18
   59.95600       -3.4475982E-18
   60.11750       -3.4475087E-18
   60.27900       -3.4497001E-18
   60.44050       -3.4524459E-18
   60.60200       -3.4538492E-18
   60.76350       -3.4529242E-18
   60.92500       -3.4500938E-18
   61.08650       -3.4468748E-18
   61.24800       -3.4449990E-18
   61.40950       -3.4455011E-18
   61.57100       -3.4482604E-18
   61.73250       -3.4521868E-18
   61.89400       -3.4558824E-18
   62.05550       -3.4583751E-18
   62.21700       -3.4595578E-18
   62.37850       -3.4601577E-18
   62.54000       -3.4612978E-18
   62.70150       -3.4638972E-18
   62.86300       -3.4681781E-18
   63.02450       -3.4734852E-18
   63.18600       -3.4785042E-18
   63.34750       -3.4818162E-18
   63.50900       -3.4825557E-18
   63.67050       -3.4808724E-18
   63.83200       -3.4779061E-18
   63.99350       -3.4752260E-18
   64.15500       -3.4739845E-18
   64.31650       -3.4742425E-18
   64.47800       -3.4749072E-18
   64.63950       -3.4743683E-18
   64.80100       -3.4715261E-18
   64.96250       -3.4665950E-18
   65.12400       -3.4611644E-18
   65.28550       -3.4574131E-18
   65.44700       -3.4568920E-18
   65.60850       -3.4596085E-18
   65.77000       -3.4639816E-18
   65.93150       -3.4677498E-18
   66.09300       -3.4692892E-18
   66.25450       -3.4685484E-18
   66.41600       -3.4670233E-18
   66.57750       -3.4668029E-18
   66.73900       -3.4692720E-18
   66.90050       -3.4742760E-18
   67.06200       -3.4802106E-18
   67.22350       -3.4849516E-18
   67.38500       -3.4870345E-18
   67.54650       -3.4864021E-18
   67.70800       -3.4843366E-18
   67.86950       -3.4826947E-18
   68.03100       -3.4829056E-18
   68.19250       -3.4852941E-18
   68.35400       -3.4890131E-18
   68.51550       -3.4925534E-18
   68.67700       -3.4945056E-18
   68.83850       -3.4941979E-18
   69.00000       -3.4919562E-18
   69.16150       -3.4889180E-18
   69.32300       -3.4865133E-18
   69.48450       -3.4858181E-18
   69.64600       -3.4870407E-18
   69.80750       -3.4893762E-18
   69.96900       -3.4913445E-18
   70.13050       -3.4915331E-18
   70.29200       -3.4893903E-18
   70.45350       -3.4856419E-18
   70.61500       -3.4820271E-18
   70.77650       -3.4804178E-18
   70.93800       -3.4817827E-18
   71.09950       -3.4855910E-18
   71.26100       -3.4900409E-18
   71.42250       -3.4930497E-18
   71.58400       -3.4934273E-18
   71.74550       -3.4915658E-18
   71.90700       -3.4892021E-18
   72.06850       -3.4883894E-18
   72.23000       -3.4902832E-18
   72.39150       -3.4944770E-18
   72.55300       -3.4992743E-18
   72.71450       -3.5027066E-18
   72.87600       -3.5036645E-18
   73.03750       -3.5024622E-18
   73.19900       -3.5005444E-18
   73.36050       -3.4995749E-18
   73.52200       -3.5004923E-18
   73.68350       -3.5030598E-18
   73.84500       -3.5061117E-18
   74.00650       -3.5082636E-18
   74.16800       -3.5086508E-18
   74.32950       -3.5072992E-18
   74.49100       -3.5050079E-18
   74.65250       -3.5028841E-18
   74.81400       -3.5018116E-18
   74.97550       -3.5021144E-18
   75.13700       -3.5035111E-18
   75.29850       -3.5053300E-18
   75.46000       -3.5068454E-18
   75.62150       -3.5076164E-18
   75.78300       -3.5076987E-18
   75.94450       -3.5076428E-18
   76.10600       -3.5082459E-18
   76.26750       -3.5101260E-18
   76.42900       -3.5133045E-18
   76.59050       -3.5170586E-18
   76.75200       -3.5201928E-18
   76.91350       -3.5216301E-18
   77.07500       -3.5210167E-18
   77.23650       -3.5189508E-18
   77.39800       -3.5166632E-18
   77.55950       -3.5152984E-18
   77.72100       -3.5152235E-18
   77.88250       -3.5157984E-18
   78.04400       -3.5157811E-18
   78.20550       -3.5141341E-18
   78.36700       -3.5107464E-18
   78.52850       -3.5065994E-18
   78.69000       -3.5032518E-18
   78.85150       -3.5019556E-18
   79.01300       -3.5029440E-18
   79.17450       -3.5053391E-18
   79.33600       -3.5077218E-18
   79.49750       -3.5089833E-18
   79.65900       -3.5089353E-18
   79.82050       -3.5083306E-18
   79.98200       -3.5083360E-18
   80.14350       -3.5098299E-18
   80.30500       -3.5129389E-18
   80.46650       -3.5170318E-18
   80.62800       -3.5211093E-18
   80.78950       -3.5243163E-18
   80.95100       -3.5262937E-18
   81.11250       -3.5272408E-18
   81.27400       -3.5277363E-18
   81.43550       -3.5284526E-18
   81.59700       -3.5298936E-18
   81.75850       -3.5322176E-18
   81.92000       -3.5351491E-18
   82.08150       -3.5380128E-18
   82.24300       -3.5399356E-18
   82.40450       -3.5402056E-18
   82.56600       -3.5386737E-18
   82.72750       -3.5359432E-18
   82.88900       -3.5331767E-18
   83.05050       -3.5315331E-18
   83.21200       -3.5315256E-18
   83.37350       -3.5326948E-18
   83.53500       -3.5338442E-18
   83.69650       -3.5337375E-18
   83.85800       -3.5318648E-18
   84.01950       -3.5288063E-18
   84.18100       -3.5259562E-18
   84.34250       -3.5247609E-18
   84.50400       -3.5259202E-18
   84.66550       -3.5290267E-18
   84.82700       -3.5328508E-18
   84.98850       -3.5360743E-18
   85.15000       -3.5380140E-18
   85.31150       -3.5389074E-18
   85.47300       -3.5396469E-18
   85.63450       -3.5411846E-18
   85.79600       -3.5440036E-18
   85.95750       -3.5479236E-18
   86.11900       -3.5522713E-18
   86.28050       -3.5562256E-18
   86.44200       -3.5591208E-18
   86.60350       -3.5606064E-18
   86.76500       -3.5606750E-18
   86.92650       -3.5596283E-18
   87.08800       -3.5579855E-18
   87.24950       -3.5563270E-18
   87.41100       -3.5550539E-18
   87.57250       -3.5541672E-18
   87.73400       -3.5531924E-18
   87.89550       -3.5513837E-18
   88.05700       -3.5481619E-18
   88.21850       -3.5435656E-18
   88.38000       -3.5384115E-18
   88.54150       -3.5339840E-18
   88.70300       -3.5313929E-18
   88.86450       -3.5309582E-18
   89.02600       -3.5320372E-18
   89.18750       -3.5334294E-18
   89.34900       -3.5341254E-18
   89.51050       -3.5339120E-18
   89.67200       -3.5334641E-18
   89.83350       -3.5338599E-18
   89.99500       -3.5358526E-18
   90.15650       -3.5393553E-18
   90.31800       -3.5434478E-18
   90.47950       -3.5468744E-18
   90.64100       -3.5487024E-18
   90.80250       -3.5487533E-18
   90.96400       -3.5475800E-18
   91.12550       -3.5460724E-18
   91.28700       -3.5449644E-18
   91.44850       -3.5445301E-18
   91.61000       -3.5445864E-18
   91.77150       -3.5447100E-18
   91.93300       -3.5444983E-18
   92.09450       -3.5437472E-18
   92.25600       -3.5425375E-18
   92.41750       -3.5412586E-18
   92.57900       -3.5405473E-18
   92.74050       -3.5411077E-18
   92.90200       -3.5433948E-18
   93.06350       -3.5473115E-18
   93.22500       -3.5521133E-18
   93.38650       -3.5566835E-18
   93.54800       -3.5600915E-18
   93.70950       -3.5621408E-18
   93.87100       -3.5635400E-18
   94.03250       -3.5655256E-18
   94.19400       -3.5691007E-18
   94.35550       -3.5743252E-18
   94.51700       -3.5801320E-18
   94.67850       -3.5848362E-18
   94.84000       -3.5870774E-18
   95.00150       -3.5866320E-18
   95.16300       -3.5845640E-18
   95.32450       -3.5826094E-18
   95.48600       -3.5821540E-18
   95.64750       -3.5834386E-18
   95.80900       -3.5854623E-18
   95.97050       -3.5866125E-18
   96.13200       -3.5856170E-18
   96.29350       -3.5822545E-18
   96.45500       -3.5774590E-18
   96.61650       -3.5728135E-18
   96.77800       -3.5697612E-18
   96.93950       -3.5689539E-18
   97.10100       -3.5700367E-18
   97.26250       -3.5719173E-18
   97.42400       -3.5733346E-18
   97.58550       -3.5734451E-18
   97.74700       -3.5721811E-18
   97.90850       -3.5702542E-18
   98.07000       -3.5688240E-18
   98.23150       -3.5689543E-18
   98.39300       -3.5710628E-18
   98.55450       -3.5746147E-18
   98.71600       -3.5782481E-18
   98.87750       -3.5803706E-18
   99.03900       -3.5799728E-18
   99.20050       -3.5772352E-18
   99.36200       -3.5735385E-18
   99.52350       -3.5707890E-18
   99.68500       -3.5703841E-18
   99.84650       -3.5724132E-18
   100.0080       -3.5755606E-18
   100.1695       -3.5778237E-18
   100.3310       -3.5776418E-18
   100.4925       -3.5748021E-18
   100.6540       -3.5705958E-18
   100.8155       -3.5671217E-18
   100.9770       -3.5661233E-18
   101.1385       -3.5680254E-18
   101.3000       -3.5717183E-18
   101.4615       -3.5751995E-18
   101.6230       -3.5766951E-18
   101.7845       -3.5756226E-18
   101.9460       -3.5728652E-18
   102.1075       -3.5702637E-18
   102.2690       -3.5696404E-18
   102.4305       -3.5718709E-18
   102.5920       -3.5764841E-18
   102.7535       -3.5819245E-18
   102.9150       -3.5863367E-18
   103.0765       -3.5884762E-18
   103.2380       -3.5882987E-18
   103.3995       -3.5869480E-18
   103.5610       -3.5861406E-18
   103.7225       -3.5872503E-18
   103.8840       -3.5905582E-18
   104.0455       -3.5950552E-18
   104.2070       -3.5989111E-18
   104.3685       -3.6004012E-18
   104.5300       -3.5988192E-18
   104.6915       -3.5949195E-18
   104.8530       -3.5906029E-18
   105.0145       -3.5879778E-18
   105.1760       -3.5882545E-18
   105.3375       -3.5910760E-18
   105.4990       -3.5946887E-18
   105.6605       -3.5969022E-18
   105.8220       -3.5963125E-18
   105.9835       -3.5931117E-18
   106.1450       -3.5890114E-18
   106.3065       -3.5863156E-18
   106.4680       -3.5866564E-18
   106.6295       -3.5900793E-18
   106.7910       -3.5949857E-18
   106.9525       -3.5989785E-18
   107.1140       -3.6001514E-18
   107.2755       -3.5981352E-18
   107.4370       -3.5943074E-18
   107.5985       -3.5910516E-18
   107.7600       -3.5904610E-18
   107.9215       -3.5931932E-18
   108.0830       -3.5981054E-18
   108.2445       -3.6028534E-18
   108.4060       -3.6051170E-18
   108.5675       -3.6038080E-18
   108.7290       -3.5996402E-18
   108.8905       -3.5947698E-18
   109.0520       -3.5916898E-18
   109.2135       -3.5919321E-18
   109.3750       -3.5952483E-18
   109.5365       -3.5997085E-18
   109.6980       -3.6027029E-18
   109.8595       -3.6023422E-18
   110.0210       -3.5985095E-18
   110.1825       -3.5930050E-18
   110.3440       -3.5886706E-18
   110.5055       -3.5879356E-18
   110.6670       -3.5915388E-18
   110.8285       -3.5980802E-18
   110.9900       -3.6046794E-18
   111.1515       -3.6084282E-18
   111.3130       -3.6079079E-18
   111.4745       -3.6039585E-18
   111.6360       -3.5992647E-18
   111.7975       -3.5969353E-18
   111.9590       -3.5988308E-18
   112.1205       -3.6045326E-18
   112.2820       -3.6115276E-18
   112.4435       -3.6165122E-18
   112.6050       -3.6171355E-18
   112.7665       -3.6132722E-18
   112.9280       -3.6071560E-18
   113.0895       -3.6022909E-18
   113.2510       -3.6016577E-18
   113.4125       -3.6061514E-18
   113.5740       -3.6140551E-18
   113.7355       -3.6218868E-18
   113.8970       -3.6261902E-18
   114.0585       -3.6253449E-18
   114.2200       -3.6204269E-18
   114.3815       -3.6146420E-18
   114.5430       -3.6116319E-18
   114.7045       -3.6135170E-18
   114.8660       -3.6197312E-18
   115.0275       -3.6272734E-18
   115.1890       -3.6322663E-18
   115.3505       -3.6320285E-18
   115.5120       -3.6265335E-18
   115.6735       -3.6184606E-18
   115.8350       -3.6117716E-18
   115.9965       -3.6095846E-18
   116.1580       -3.6125145E-18
   116.3195       -3.6183767E-18
   116.4810       -3.6233939E-18
   116.6425       -3.6242323E-18
   116.8040       -3.6197626E-18
   116.9655       -3.6116302E-18
   117.1270       -3.6033762E-18
   117.2885       -3.5985856E-18
   117.4500       -3.5990368E-18
   117.6115       -3.6038183E-18
   117.7730       -3.6098567E-18
   117.9345       -3.6135803E-18
   118.0960       -3.6128251E-18
   118.2575       -3.6079923E-18
   118.4190       -3.6018347E-18
   118.5805       -3.5979979E-18
   118.7420       -3.5990666E-18