  -27.90000        6.6111153E-18
  -27.73850        6.6142048E-18
  -27.57700        6.6185649E-18
  -27.41550        6.6223397E-18
  -27.25400        6.6252266E-18
  -27.09250        6.6283513E-18
  -26.93100        6.6326927E-18
  -26.76950        6.6378378E-18
  -26.60800        6.6423633E-18
  -26.44650        6.6453734E-18
  -26.28500        6.6474993E-18
  -26.12350        6.6502654E-18
  -25.96200        6.6544761E-18
  -25.80050        6.6593375E-18
  -25.63900        6.6632848E-18
  -25.47750        6.6656728E-18
  -25.31600        6.6675117E-18
  -25.15450        6.6704084E-18
  -24.99300        6.6748173E-18
  -24.83150        6.6794938E-18
  -24.67000        6.6827802E-18
  -24.50850        6.6843568E-18
  -24.34700        6.6855918E-18
  -24.18550        6.6881283E-18
  -24.02400        6.6922303E-18
  -23.86250        6.6965957E-18
  -23.70100        6.6997581E-18
  -23.53950        6.7015708E-18
  -23.37800        6.7032401E-18
  -23.21650        6.7059404E-18
  -23.05500        6.7095192E-18
  -22.89350        6.7126819E-18
  -22.73200        6.7144682E-18
  -22.57050        6.7154211E-18
  -22.40900        6.7171185E-18
  -22.24750        6.7205112E-18
  -22.08600        6.7248307E-18
  -21.92450        6.7282801E-18
  -21.76300        6.7298050E-18
  -21.60150        6.7300916E-18
  -21.44000        6.7307765E-18
  -21.27850        6.7327870E-18
  -21.11700        6.7355787E-18
  -20.95550        6.7379928E-18
  -20.79400        6.7397101E-18
  -20.63250        6.7416978E-18
  -20.47100        6.7451608E-18
  -20.30950        6.7501288E-18
  -20.14800        6.7551986E-18
  -19.98650        6.7587807E-18
  -19.82500        6.7605926E-18
  -19.66350        6.7618272E-18
  -19.50200        6.7637980E-18
  -19.34050        6.7664933E-18
  -19.17900        6.7686088E-18
  -19.01750        6.7690489E-18
  -18.85600        6.7682738E-18
  -18.69450        6.7680273E-18
  -18.53300        6.7697127E-18
  -18.37150        6.7731133E-18
  -18.21000        6.7767231E-18
  -18.04850        6.7792749E-18
  -17.88700        6.7808660E-18
  -17.72550        6.7825928E-18
  -17.56400        6.7851851E-18
  -17.40250        6.7881431E-18
  -17.24100        6.7902723E-18
  -17.07950        6.7910461E-18
  -16.91800        6.7912831E-18
  -16.75650        6.7923613E-18
  -16.59500        6.7947626E-18
  -16.43350        6.7975341E-18
  -16.27200        6.7992795E-18
  -16.11050        6.7996496E-18
  -15.94900        6.7997270E-18
  -15.78750        6.8009078E-18
  -15.62600        6.8034906E-18
  -15.46450        6.8064615E-18
  -15.30300        6.8086415E-18
  -15.14150        6.8099418E-18
  -14.98000        6.8114001E-18
  -14.81850        6.8139942E-18
  -14.65700        6.8175171E-18
  -14.49550        6.8207167E-18
  -14.33400        6.8226018E-18
  -14.17250        6.8235630E-18
  -14.01100        6.8251028E-18
  -13.84950        6.8283888E-18
  -13.68800        6.8331182E-18
  -13.52650        6.8378947E-18
  -13.36500        6.8416994E-18
  -13.20350        6.8448976E-18
  -13.04200        6.8487114E-18
  -12.88050        6.8537526E-18
  -12.71900        6.8591975E-18
  -12.55750        6.8634517E-18
  -12.39600        6.8655941E-18
  -12.23450        6.8661301E-18
  -12.07300        6.8663518E-18
  -11.91150        6.8670500E-18
  -11.75000        6.8679168E-18
  -11.58850        6.8681989E-18
  -11.42700        6.8678296E-18
  -11.26550        6.8677357E-18
  -11.10400        6.8689235E-18
  -10.94250        6.8712963E-18
  -10.78100        6.8735446E-18
  -10.61950        6.8743234E-18
  -10.45800        6.8735392E-18
  -10.29650        6.8723803E-18
  -10.13500        6.8720747E-18
  -9.973500        6.8726967E-18
  -9.812000        6.8732629E-18
  -9.650500        6.8729498E-18
  -9.489000        6.8721169E-18
  -9.327500        6.8720379E-18
  -9.166000        6.8736273E-18
  -9.004500        6.8764819E-18
  -8.843000        6.8792302E-18
  -8.681500        6.8808647E-18
  -8.520000        6.8816811E-18
  -8.358500        6.8828466E-18
  -8.197000        6.8850519E-18
  -8.035500        6.8876832E-18
  -7.874000        6.8894388E-18
  -7.712500        6.8897449E-18
  -7.551000        6.8894566E-18
  -7.389500        6.8900857E-18
  -7.228000        6.8923691E-18
  -7.066500        6.8956617E-18
  -6.905000        6.8987343E-18
  -6.743500        6.9010665E-18
  -6.582000        6.9032896E-18
  -6.420500        6.9063783E-18
  -6.259000        6.9105059E-18
  -6.097500        6.9147766E-18
  -5.936000        6.9181259E-18
  -5.774500        6.9204002E-18
  -5.613000        6.9224359E-18
  -5.451500        6.9250130E-18
  -5.290000        6.9278328E-18
  -5.128500        6.9297114E-18
  -4.967000        6.9298636E-18
  -4.805500        6.9289177E-18
  -4.644000        6.9285082E-18
  -4.482500        6.9297970E-18
  -4.321000        6.9324328E-18
  -4.159500        6.9350020E-18
  -3.998000        6.9364839E-18
  -3.836500        6.9372060E-18
  -3.675000        6.9383591E-18
  -3.513500        6.9406293E-18
  -3.352000        6.9433946E-18
  -3.190500        6.9453252E-18
  -3.029000        6.9457694E-18
  -2.867500        6.9454700E-18
  -2.706000        6.9458555E-18
  -2.544500        6.9476298E-18
  -2.383000        6.9501593E-18
  -2.221500        6.9522959E-18
  -2.060000        6.9537170E-18
  -1.898500        6.9552994E-18
  -1.737000        6.9581168E-18
  -1.575500        6.9621766E-18
  -1.414000        6.9662703E-18
  -1.252500        6.9691108E-18
  -1.091000        6.9705600E-18
 -0.9295000        6.9716726E-18
 -0.7680000        6.9735710E-18
 -0.6065000        6.9763445E-18
 -0.4450000        6.9791230E-18
 -0.2835000        6.9811984E-18
 -0.1220000        6.9829388E-18
  3.9500002E-02    6.9854269E-18
  0.2010000        6.9891724E-18
  0.3625000        6.9932951E-18
  0.5240000        6.9961737E-18
  0.6855000        6.9969686E-18
  0.8470000        6.9964260E-18
   1.008500        6.9960777E-18
   1.170000        6.9966468E-18
   1.331500        6.9973251E-18
   1.493000        6.9966774E-18
   1.654500        6.9942058E-18
   1.816000        6.9909773E-18
   1.977500        6.9886728E-18
   2.139000        6.9880632E-18
   2.300500        6.9884379E-18
   2.462000        6.9885057E-18
   2.623500        6.9878043E-18
   2.785000        6.9871268E-18
   2.946500        6.9875677E-18
   3.108000        6.9892791E-18
   3.269500        6.9912941E-18
   3.431000        6.9926077E-18
   3.592500        6.9932819E-18
   3.754000        6.9943382E-18
   3.915500        6.9965550E-18
   4.077000        6.9995387E-18
   4.238500        7.0021070E-18
   4.400000        7.0035877E-18
   4.561500        7.0046159E-18
   4.723000        7.0065449E-18
   4.884500        7.0100753E-18
   5.046000        7.0145296E-18
   5.207500        7.0185497E-18
   5.369000        7.0214887E-18
   5.530500        7.0240133E-18
   5.692000        7.0272550E-18
   5.853500        7.0313884E-18
   6.015000        7.0352001E-18
   6.176500        7.0371886E-18
   6.338000        7.0370935E-18
   6.499500        7.0362373E-18
   6.661000        7.0362919E-18
   6.822500        7.0377288E-18
   6.984000        7.0395312E-18
   7.145500        7.0404055E-18
   7.307000        7.0401681E-18
   7.468500        7.0398918E-18
   7.630000        7.0407289E-18
   7.791500        7.0426670E-18
   7.953000        7.0445257E-18
   8.114500        7.0451552E-18
   8.276000        7.0445621E-18
   8.437500        7.0438094E-18
   8.599000        7.0438424E-18
   8.760500        7.0445472E-18
   8.922000        7.0450774E-18
   9.083500        7.0450129E-18
   9.245000        7.0450046E-18
   9.406500        7.0461155E-18
   9.568000        7.0485747E-18
   9.729500        7.0513532E-18
   9.891000        7.0530903E-18
   10.05250        7.0534237E-18
   10.21400        7.0533277E-18
   10.37550        7.0540887E-18
   10.53700        7.0559813E-18
   10.69850        7.0580327E-18
   10.86000        7.0591188E-18
   11.02150        7.0592619E-18
   11.18300        7.0597425E-18
   11.34450        7.0618402E-18
   11.50600        7.0655162E-18
   11.66750        7.0694156E-18
   11.82900        7.0722362E-18
   11.99050        7.0740064E-18
   12.15200        7.0759503E-18
   12.31350        7.0790944E-18
   12.47500        7.0830897E-18
   12.63650        7.0864861E-18
   12.79800        7.0881049E-18
   12.95950        7.0880710E-18
   13.12100        7.0874870E-18
   13.28250        7.0871784E-18
   13.44400        7.0868625E-18
   13.60550        7.0856043E-18
   13.76700        7.0830376E-18
   13.92850        7.0799927E-18
   14.09000        7.0778404E-18
   14.25150        7.0772208E-18
   14.41300        7.0775517E-18
   14.57450        7.0778396E-18
   14.73600        7.0778884E-18
   14.89750        7.0785327E-18
   15.05900        7.0806371E-18
   15.22050        7.0839673E-18
   15.38200        7.0872289E-18
   15.54350        7.0892985E-18
   15.70500        7.0903573E-18
   15.86650        7.0917412E-18
   16.02800        7.0946297E-18
   16.18950        7.0989095E-18
   16.35100        7.1033597E-18
   16.51250        7.1069464E-18
   16.67400        7.1098531E-18
   16.83550        7.1131602E-18
   16.99700        7.1174880E-18
   17.15850        7.1221028E-18
   17.32000        7.1254761E-18
   17.48150        7.1267747E-18
   17.64300        7.1266879E-18
   17.80450        7.1267144E-18
   17.96600        7.1276648E-18
   18.12750        7.1289329E-18
   18.28900        7.1292646E-18
   18.45050        7.1281454E-18
   18.61200        7.1263471E-18
   18.77350        7.1251030E-18
   18.93500        7.1248300E-18
   19.09650        7.1247531E-18
   19.25800        7.1237936E-18
   19.41950        7.1217786E-18
   19.58100        7.1196461E-18
   19.74250        7.1184351E-18
   19.90400        7.1181696E-18
   20.06550        7.1178784E-18
   20.22700        7.1167353E-18
   20.38850        7.1150553E-18
   20.55000        7.1139932E-18
   20.71150        7.1142785E-18
   20.87300        7.1153745E-18
   21.03450        7.1160222E-18
   21.19600        7.1156136E-18
   21.35750        7.1149246E-18
   21.51900        7.1154126E-18
   21.68050        7.1177676E-18
   21.84200        7.1212004E-18
   22.00350        7.1241931E-18
   22.16500        7.1259600E-18
   22.32650        7.1271081E-18
   22.48800        7.1288303E-18
   22.64950        7.1315153E-18
   22.81100        7.1342847E-18
   22.97250        7.1359763E-18
   23.13400        7.1365007E-18
   23.29550        7.1370773E-18
   23.45700        7.1390741E-18
   23.61850        7.1426765E-18
   23.78000        7.1467768E-18
   23.94150        7.1501476E-18
   24.10300        7.1526109E-18
   24.26450        7.1549849E-18
   24.42600        7.1579421E-18
   24.58750        7.1610341E-18
   24.74900        7.1629730E-18
   24.91050        7.1628895E-18
   25.07200        7.1612376E-18
   25.23350        7.1593607E-18
   25.39500        7.1581497E-18
   25.55650        7.1572291E-18
   25.71800        7.1555631E-18
   25.87950        7.1528160E-18
   26.04100        7.1499408E-18
   26.20250        7.1483162E-18
   26.36400        7.1483600E-18
   26.52550        7.1491235E-18
   26.68700        7.1493187E-18
   26.84850        7.1486801E-18
   27.01000        7.1482202E-18
   27.17150        7.1491318E-18
   27.33300        7.1514917E-18
   27.49450        7.1541437E-18
   27.65600        7.1558626E-18
   27.81750        7.1566070E-18
   27.97900        7.1575144E-18
   28.14050        7.1596395E-18
   28.30200        7.1627836E-18
   28.46350        7.1656961E-18
   28.62500        7.1674414E-18
   28.78650        7.1684299E-18
   28.94800        7.1699668E-18
   29.10950        7.1727966E-18
   29.27100        7.1762112E-18
   29.43250        7.1787002E-18
   29.59400        7.1794314E-18
   29.75550        7.1790129E-18
   29.91700        7.1787697E-18
   30.07850        7.1793404E-18
   30.24000        7.1800824E-18
   30.40150        7.1798880E-18
   30.56300        7.1785256E-18
   30.72450        7.1770549E-18
   30.88600        7.1768092E-18
   31.04750        7.1780178E-18
   31.20900        7.1795629E-18
   31.37050        7.1801486E-18
   31.53200        7.1796415E-18
   31.69350        7.1791295E-18
   31.85500        7.1796399E-18
   32.01650        7.1809724E-18
   32.17800        7.1819196E-18
   32.33950        7.1816367E-18
   32.50100        7.1806672E-18
   32.66250        7.1805142E-18
   32.82400        7.1821818E-18
   32.98550        7.1852283E-18
   33.14700        7.1882607E-18
   33.30850        7.1903676E-18
   33.47000        7.1919524E-18
   33.63150        7.1940783E-18
   33.79300        7.1970421E-18
   33.95450        7.1997594E-18
   34.11600        7.2007115E-18
   34.27750        7.1994897E-18
   34.43900        7.1972745E-18
   34.60050        7.1957037E-18
   34.76200        7.1953265E-18
   34.92350        7.1952876E-18
   35.08500        7.1945068E-18
   35.24650        7.1930576E-18
   35.40800        7.1922320E-18
   35.56950        7.1932751E-18
   35.73100        7.1961074E-18
   35.89250        7.1994070E-18
   36.05400        7.2019282E-18
   36.21550        7.2036860E-18
   36.37700        7.2057308E-18
   36.53850        7.2087781E-18
   36.70000        7.2122043E-18
   36.86150        7.2145477E-18
   37.02300        7.2150060E-18
   37.18450        7.2142929E-18
   37.34600        7.2138843E-18
   37.50750        7.2144427E-18
   37.66900        7.2151532E-18
   37.83050        7.2146627E-18
   37.99200        7.2126105E-18
   38.15350        7.2100917E-18
   38.31500        7.2085837E-18
   38.47650        7.2084721E-18
   38.63800        7.2087434E-18
   38.79950        7.2081536E-18
   38.96100        7.2066117E-18
   39.12250        7.2053280E-18
   39.28400        7.2055331E-18
   39.44550        7.2071808E-18
   39.60700        7.2090271E-18
   39.76850        7.2100578E-18
   39.93000        7.2106782E-18
   40.09150        7.2123358E-18
   40.25300        7.2159349E-18
   40.41450        7.2207375E-18
   40.57600        7.2249652E-18
   40.73750        7.2274492E-18
   40.89900        7.2286056E-18
   41.06050        7.2297455E-18
   41.22200        7.2315256E-18
   41.38350        7.2332188E-18
   41.54500        7.2335406E-18
   41.70650        7.2321493E-18
   41.86800        7.2301864E-18
   42.02950        7.2292608E-18
   42.19100        7.2299308E-18
   42.35250        7.2313064E-18
   42.51400        7.2321749E-18
   42.67550        7.2324041E-18
   42.83700        7.2330476E-18
   42.99850        7.2350295E-18
   43.16000        7.2378734E-18
   43.32150        7.2399463E-18
   43.48300        7.2400174E-18
   43.64450        7.2384904E-18
   43.80600        7.2369808E-18
   43.96750        7.2367054E-18
   44.12900        7.2373522E-18
   44.29050        7.2375888E-18
   44.45200        7.2366301E-18
   44.61350        7.2351859E-18
   44.77500        7.2347739E-18
   44.93650        7.2361148E-18
   45.09800        7.2383250E-18
   45.25950        7.2397924E-18
   45.42100        7.2398214E-18
   45.58250        7.2393019E-18
   45.74400        7.2396642E-18
   45.90550        7.2412954E-18
   46.06700        7.2431227E-18
   46.22850        7.2438043E-18
   46.39000        7.2431996E-18
   46.55150        7.2425155E-18
   46.71300        7.2430126E-18
   46.87450        7.2446918E-18
   47.03600        7.2463660E-18
   47.19750        7.2470278E-18
   47.35900        7.2470236E-18
   47.52050        7.2477549E-18
   47.68200        7.2501901E-18
   47.84350        7.2537784E-18
   48.00500        7.2569564E-18
   48.16650        7.2587349E-18
   48.32800        7.2596820E-18
   48.48950        7.2611957E-18
   48.65100        7.2638601E-18
   48.81250        7.2666741E-18
   48.97400        7.2680324E-18
   49.13550        7.2674194E-18
   49.29700        7.2659843E-18
   49.45850        7.2653887E-18
   49.62000        7.2661340E-18
   49.78150        7.2671159E-18
   49.94300        7.2668297E-18
   50.10450        7.2649346E-18
   50.26600        7.2625349E-18
   50.42750        7.2609244E-18
   50.58900        7.2601634E-18
   50.75050        7.2590409E-18
   50.91200        7.2564874E-18
   51.07350        7.2529248E-18
   51.23500        7.2500635E-18
   51.39650        7.2493257E-18
   51.55800        7.2505623E-18
   51.71950        7.2524078E-18
   51.88100        7.2538338E-18
   52.04250        7.2551863E-18
   52.20400        7.2575942E-18
   52.36550        7.2614811E-18
   52.52700        7.2658403E-18
   52.68850        7.2690986E-18
   52.85000        7.2706578E-18
   53.01150        7.2714371E-18
   53.17300        7.2728342E-18
   53.33450        7.2751734E-18
   53.49600        7.2773142E-18
   53.65750        7.2778791E-18
   53.81900        7.2768046E-18
   53.98050        7.2755283E-18
   54.14200        7.2755548E-18
   54.30350        7.2769122E-18
   54.46500        7.2781620E-18
   54.62650        7.2779892E-18
   54.78800        7.2766590E-18
   54.94950        7.2757798E-18
   55.11100        7.2766524E-18
   55.27250        7.2789181E-18
   55.43400        7.2809339E-18
   55.59550        7.2814004E-18
   55.75700        7.2805393E-18
   55.91850        7.2796245E-18
   56.08000        7.2794582E-18
   56.24150        7.2794698E-18
   56.40300        7.2784441E-18
   56.56450        7.2760734E-18
   56.72600        7.2736158E-18
   56.88750        7.2728573E-18
   57.04900        7.2744190E-18
   57.21050        7.2772166E-18
   57.37200        7.2796121E-18
   57.53350        7.2810340E-18
   57.69500        7.2823021E-18
   57.85650        7.2843866E-18
   58.01800        7.2870435E-18
   58.17950        7.2888691E-18
   58.34100        7.2887450E-18
   58.50250        7.2871039E-18
   58.66400        7.2856158E-18
   58.82550        7.2855703E-18
   58.98700        7.2866497E-18
   59.14850        7.2873892E-18
   59.31000        7.2868474E-18
   59.47150        7.2857101E-18
   59.63300        7.2856067E-18
   59.79450        7.2873363E-18
   59.95600        7.2899171E-18
   60.11750        7.2915260E-18
   60.27900        7.2913746E-18
   60.44050        7.2905292E-18
   60.60200        7.2908303E-18
   60.76350        7.2930323E-18
   60.92500        7.2961358E-18
   61.08650        7.2985123E-18
   61.24800        7.2995753E-18
   61.40950        7.3002147E-18
   61.57100        7.3016167E-18
   61.73250        7.3038237E-18
   61.89400        7.3056128E-18
   62.05550        7.3058196E-18
   62.21700        7.3046417E-18
   62.37850        7.3034580E-18
   62.54000        7.3033199E-18
   62.70150        7.3037269E-18
   62.86300        7.3030916E-18
   63.02450        7.3004190E-18
   63.18600        7.2964278E-18
   63.34750        7.2928908E-18
   63.50900        7.2909246E-18
   63.67050        7.2900891E-18
   63.83200        7.2892281E-18
   63.99350        7.2880915E-18
   64.15500        7.2878971E-18
   64.31650        7.2901578E-18
   64.47800        7.2950142E-18
   64.63950        7.3008135E-18
   64.80100        7.3054689E-18
   64.96250        7.3082028E-18
   65.12400        7.3099249E-18
   65.28550        7.3118837E-18
   65.44700        7.3140757E-18
   65.60850        7.3151527E-18
   65.77000        7.3139508E-18
   65.93150        7.3109887E-18
   66.09300        7.3082772E-18
   66.25450        7.3075815E-18
   66.41600        7.3089232E-18
   66.57750        7.3108324E-18
   66.73900        7.3119755E-18
   66.90050        7.3123775E-18
   67.06200        7.3130368E-18
   67.22350        7.3144877E-18
   67.38500        7.3159791E-18
   67.54650        7.3162066E-18
   67.70800        7.3147565E-18
   67.86950        7.3126902E-18
   68.03100        7.3115421E-18
   68.19250        7.3117960E-18
   68.35400        7.3124569E-18
   68.51550        7.3122419E-18
   68.67700        7.3110921E-18
   68.83850        7.3103559E-18
   69.00000        7.3113841E-18
   69.16150        7.3140716E-18
   69.32300        7.3169353E-18
   69.48450        7.3186467E-18
   69.64600        7.3193507E-18
   69.80750        7.3203425E-18
   69.96900        7.3224708E-18
   70.13050        7.3250078E-18
   70.29200        7.3262212E-18
   70.45350        7.3250930E-18
   70.61500        7.3223922E-18
   70.77650        7.3199851E-18
   70.93800        7.3190653E-18
   71.09950        7.3191348E-18
   71.26100        7.3187716E-18
   71.42250        7.3173365E-18
   71.58400        7.3157830E-18
   71.74550        7.3156705E-18
   71.90700        7.3174763E-18
   72.06850        7.3200058E-18
   72.23000        7.3215170E-18
   72.39150        7.3213351E-18
   72.55300        7.3202895E-18
   72.71450        7.3196609E-18
   72.87600        7.3198999E-18
   73.03750        7.3204856E-18
   73.19900        7.3209529E-18
   73.36050        7.3217950E-18
   73.52200        7.3241326E-18
   73.68350        7.3284306E-18
   73.84500        7.3336584E-18
   74.00650        7.3379076E-18
   74.16800        7.3399566E-18
   74.32950        7.3401592E-18
   74.49100        7.3397465E-18
   74.65250        7.3392808E-18
   74.81400        7.3379937E-18
   74.97550        7.3347561E-18
   75.13700        7.3296168E-18
   75.29850        7.3242194E-18
   75.46000        7.3205559E-18
   75.62150        7.3193424E-18
   75.78300        7.3196203E-18
   75.94450        7.3199495E-18
   76.10600        7.3198949E-18
   76.26750        7.3203085E-18
   76.42900        7.3221945E-18
   76.59050        7.3254040E-18
   76.75200        7.3285605E-18
   76.91350        7.3303191E-18
   77.07500        7.3306177E-18
   77.23650        7.3306127E-18
   77.39800        7.3313911E-18
   77.55950        7.3328618E-18
   77.72100        7.3340050E-18
   77.88250        7.3341167E-18
   78.04400        7.3336402E-18
   78.20550        7.3336882E-18
   78.36700        7.3348711E-18
   78.52850        7.3367281E-18
   78.69000        7.3383427E-18
   78.85150        7.3393932E-18
   79.01300        7.3404487E-18
   79.17450        7.3421775E-18
   79.33600        7.3443448E-18
   79.49750        7.3457460E-18
   79.65900        7.3452563E-18
   79.82050        7.3429642E-18
   79.98200        7.3401683E-18
   80.14350        7.3381616E-18
   80.30500        7.3370589E-18
   80.46650        7.3358968E-18
   80.62800        7.3338685E-18
   80.78950        7.3313547E-18
   80.95100        7.3296044E-18
   81.11250        7.3294423E-18
   81.27400        7.3303646E-18
   81.43550        7.3309734E-18
   81.59700        7.3302785E-18
   81.75850        7.3285555E-18
   81.92000        7.3269549E-18
   82.08150        7.3263511E-18
   82.24300        7.3265852E-18
   82.40450        7.3268648E-18
   82.56600        7.3267994E-18
   82.72750        7.3269326E-18
   82.88900        7.3281568E-18
   83.05050        7.3306657E-18
   83.21200        7.3336079E-18
   83.37350        7.3358364E-18
   83.53500        7.3369092E-18
   83.69650        7.3372790E-18
   83.85800        7.3375544E-18
   84.01950        7.3377463E-18
   84.18100        7.3373518E-18
   84.34250        7.3361366E-18
   84.50400        7.3346957E-18
   84.66550        7.3341043E-18
   84.82700        7.3349811E-18
   84.98850        7.3368935E-18
   85.15000        7.3387927E-18
   85.31150        7.3400542E-18
   85.47300        7.3410898E-18
   85.63450        7.3428426E-18
   85.79600        7.3456740E-18
   85.95750        7.3488198E-18
   86.11900        7.3510251E-18
   86.28050        7.3516893E-18
   86.44200        7.3513195E-18
   86.60350        7.3508423E-18
   86.76500        7.3505569E-18
   86.92650        7.3498331E-18
   87.08800        7.3478206E-18
   87.24950        7.3443737E-18
   87.41100        7.3402891E-18
   87.57250        7.3366404E-18
   87.73400        7.3339430E-18
   87.89550        7.3319652E-18
   88.05700        7.3303001E-18
   88.21850        7.3290278E-18
   88.38000        7.3287127E-18
   88.54150        7.3297260E-18
   88.70300        7.3316972E-18
   88.86450        7.3337386E-18
   89.02600        7.3352449E-18
   89.18750        7.3363600E-18
   89.34900        7.3376347E-18
   89.51050        7.3393155E-18
   89.67200        7.3410757E-18
   89.83350        7.3424836E-18
   89.99500        7.3436284E-18
   90.15650        7.3451595E-18
   90.31800        7.3476452E-18
   90.47950        7.3508878E-18
   90.64100        7.3539086E-18
   90.80250        7.3557028E-18
   90.96400        7.3560560E-18
   91.12550        7.3556424E-18
   91.28700        7.3552950E-18
   91.44850        7.3551825E-18
   91.61000        7.3547474E-18
   91.77150        7.3534305E-18
   91.93300        7.3513733E-18
   92.09450        7.3493492E-18
   92.25600        7.3480315E-18
   92.41750        7.3473871E-18
   92.57900        7.3467982E-18
   92.74050        7.3457063E-18
   92.90200        7.3441032E-18
   93.06350        7.3424472E-18
   93.22500        7.3411833E-18
   93.38650        7.3403834E-18
   93.54800        7.3398457E-18
   93.70950        7.3394644E-18
   93.87100        7.3394181E-18
   94.03250        7.3399400E-18
   94.19400        7.3409368E-18
   94.35550        7.3419343E-18
   94.51700        7.3424786E-18
   94.67850        7.3425456E-18
   94.84000        7.3425059E-18
   95.00150        7.3426730E-18
   95.16300        7.3429634E-18
   95.32450        7.3430610E-18
   95.48600        7.3428699E-18
   95.64750        7.3427235E-18
   95.80900        7.3430998E-18
   95.97050        7.3441107E-18
   96.13200        7.3452737E-18
   96.29350        7.3458287E-18
   96.45500        7.3453506E-18
   96.61650        7.3441247E-18
   96.77800        7.3429485E-18
   96.93950        7.3425241E-18
   97.10100        7.3430113E-18
   97.26250        7.3441123E-18
   97.42400        7.3455160E-18
   97.58550        7.3471927E-18
   97.74700        7.3492590E-18
   97.90850        7.3516339E-18
   98.07000        7.3539020E-18
   98.23150        7.3554935E-18
   98.39300        7.3559972E-18
   98.55450        7.3553148E-18
   98.71600        7.3536356E-18
   98.87750        7.3513005E-18
   99.03900        7.3486999E-18
   99.20050        7.3462167E-18
   99.36200        7.3441942E-18
   99.52350        7.3428459E-18
   99.68500        7.3421502E-18
   99.84650        7.3418574E-18
   100.0080        7.3416738E-18
   100.1695        7.3415001E-18
   100.3310        7.3414827E-18
   100.4925        7.3418202E-18
   100.6540        7.3425341E-18
   100.8155        7.3434497E-18
   100.9770        7.3443902E-18
   101.1385        7.3453456E-18
   101.3000        7.3464491E-18
   101.4615        7.3477833E-18
   101.6230        7.3492152E-18
   101.7845        7.3504212E-18
   101.9460        7.3510689E-18
   102.1075        7.3510524E-18
   102.2690        7.3506082E-18
   102.4305        7.3502020E-18
   102.5920        7.3502649E-18
   102.7535        7.3509597E-18
   102.9150        7.3521434E-18
   103.0765        7.3535025E-18
   103.2380        7.3547465E-18
   103.3995        7.3556978E-18
   103.5610        7.3563091E-18
   103.7225        7.3565920E-18
   103.8840        7.3565399E-18
   104.0455        7.3560973E-18
   104.2070        7.3552495E-18
   104.3685        7.3541626E-18
   104.5300        7.3532022E-18
   104.6915        7.3527588E-18
   104.8530        7.3529838E-18
   105.0145        7.3536654E-18
   105.1760        7.3543578E-18
   105.3375        7.3546415E-18
   105.4990        7.3543272E-18
   105.6605        7.3534876E-18
   105.8220        7.3523668E-18
   105.9835        7.3512550E-18
   106.1450        7.3504105E-18
   106.3065        7.3500614E-18
   106.4680        7.3503873E-18
   106.6295        7.3514610E-18
   106.7910        7.3531741E-18
   106.9525        7.3552304E-18
   107.1140        7.3572620E-18
   107.2755        7.3589478E-18
   107.4370        7.3600397E-18
   107.5985        7.3603416E-18
   107.7600        7.3597369E-18
   107.9215        7.3583183E-18
   108.0830        7.3564836E-18
   108.2445        7.3547896E-18
   108.4060        7.3536414E-18
   108.5675        7.3530492E-18
   108.7290        7.3526761E-18
   108.8905        7.3521542E-18
   109.0520        7.3513998E-18
   109.2135        7.3506528E-18
   109.3750        7.3502301E-18
   109.5365        7.3502202E-18
   109.6980        7.3504237E-18
   109.8595        7.3506073E-18
   110.0210        7.3508042E-18
   110.1825        7.3513253E-18
   110.3440        7.3524379E-18
   110.5055        7.3540145E-18
   110.6670        7.3555373E-18
   110.8285        7.3564423E-18
   110.9900        7.3565167E-18
   111.1515        7.3559617E-18
   111.3130        7.3551527E-18
   111.4745        7.3543685E-18
   111.6360        7.3537275E-18
   111.7975        7.3533188E-18
   111.9590        7.3532808E-18
   112.1205        7.3537159E-18
   112.2820        7.3545108E-18
   112.4435        7.3553066E-18
   112.6050        7.3557135E-18
   112.7665        7.3556101E-18
   112.9280        7.3552081E-18
   113.0895        7.3548036E-18
   113.2510        7.3544595E-18
   113.4125        7.3540004E-18
   113.5740        7.3533395E-18
   113.7355        7.3527712E-18
   113.8970        7.3528341E-18
   114.0585        7.3538094E-18
   114.2200        7.3553454E-18
   114.3815        7.3566350E-18
   114.5430        7.3570097E-18
   114.7045        7.3564390E-18
   114.8660        7.3554877E-18
   115.0275        7.3548094E-18
   115.1890        7.3546481E-18
   115.3505        7.3548160E-18
   115.5120        7.3551064E-18
   115.6735        7.3556598E-18
   115.8350        7.3568592E-18
   115.9965        7.3588378E-18
   116.1580        7.3611398E-18
   116.3195        7.3629555E-18
   116.4810        7.3637107E-18
   116.6425        7.3634485E-18
   116.8040        7.3626304E-18
   116.9655        7.3616394E-18
   117.1270        7.3605178E-18
   117.2885        7.3591653E-18
   117.4500        7.3576781E-18
   117.6115        7.3564100E-18
   117.7730        7.3556465E-18
   117.9345        7.3552759E-18
   118.0960        7.3548408E-18
   118.2575        7.3540037E-18
   118.4190        7.3529474E-18
   118.5805        7.3522460E-18
   118.7420        7.3522741E-18