  -27.90000       -1.8014579E-18
  -27.73850       -1.8051786E-18
  -27.57700       -1.8103406E-18
  -27.41550       -1.8140884E-18
  -27.25400       -1.8149945E-18
  -27.09250       -1.8139965E-18
  -26.93100       -1.8136082E-18
  -26.76950       -1.8159919E-18
  -26.60800       -1.8213177E-18
  -26.44650       -1.8275944E-18
  -26.28500       -1.8320828E-18
  -26.12350       -1.8332527E-18
  -25.96200       -1.8318750E-18
  -25.80050       -1.8304562E-18
  -25.63900       -1.8314469E-18
  -25.47750       -1.8355057E-18
  -25.31600       -1.8410617E-18
  -25.15450       -1.8454850E-18
  -24.99300       -1.8469973E-18
  -24.83150       -1.8459505E-18
  -24.67000       -1.8445557E-18
  -24.50850       -1.8452720E-18
  -24.34700       -1.8490154E-18
  -24.18550       -1.8544837E-18
  -24.02400       -1.8590915E-18
  -23.86250       -1.8608497E-18
  -23.70100       -1.8598236E-18
  -23.53950       -1.8580966E-18
  -23.37800       -1.8582581E-18
  -23.21650       -1.8615179E-18
  -23.05500       -1.8668166E-18
  -22.89350       -1.8715921E-18
  -22.73200       -1.8736305E-18
  -22.57050       -1.8726718E-18
  -22.40900       -1.8706040E-18
  -22.24750       -1.8700914E-18
  -22.08600       -1.8726319E-18
  -21.92450       -1.8774673E-18
  -21.76300       -1.8821484E-18
  -21.60150       -1.8843383E-18
  -21.44000       -1.8835368E-18
  -21.27850       -1.8814564E-18
  -21.11700       -1.8807939E-18
  -20.95550       -1.8832812E-18
  -20.79400       -1.8884213E-18
  -20.63250       -1.8938236E-18
  -20.47100       -1.8969005E-18
  -20.30950       -1.8967090E-18
  -20.14800       -1.8945927E-18
  -19.98650       -1.8931792E-18
  -19.82500       -1.8944564E-18
  -19.66350       -1.8983386E-18
  -19.50200       -1.9027541E-18
  -19.34050       -1.9051736E-18
  -19.17900       -1.9044611E-18
  -19.01750       -1.9017300E-18
  -18.85600       -1.8995855E-18
  -18.69450       -1.9002822E-18
  -18.53300       -1.9041255E-18
  -18.37150       -1.9092499E-18
  -18.21000       -1.9129656E-18
  -18.04850       -1.9136844E-18
  -17.88700       -1.9120361E-18
  -17.72550       -1.9103641E-18
  -17.56400       -1.9109874E-18
  -17.40250       -1.9144841E-18
  -17.24100       -1.9192464E-18
  -17.07950       -1.9226372E-18
  -16.91800       -1.9229205E-18
  -16.75650       -1.9205678E-18
  -16.59500       -1.9179520E-18
  -16.43350       -1.9176439E-18
  -16.27200       -1.9205554E-18
  -16.11050       -1.9253247E-18
  -15.94900       -1.9293667E-18
  -15.78750       -1.9308013E-18
  -15.62600       -1.9298138E-18
  -15.46450       -1.9284864E-18
  -15.30300       -1.9292422E-18
  -15.14150       -1.9330512E-18
  -14.98000       -1.9387075E-18
  -14.81850       -1.9436931E-18
  -14.65700       -1.9459850E-18
  -14.49550       -1.9454732E-18
  -14.33400       -1.9439756E-18
  -14.17250       -1.9438860E-18
  -14.01100       -1.9464480E-18
  -13.84950       -1.9508819E-18
  -13.68800       -1.9549471E-18
  -13.52650       -1.9565322E-18
  -13.36500       -1.9551661E-18
  -13.20350       -1.9523836E-18
  -13.04200       -1.9506668E-18
  -12.88050       -1.9516739E-18
  -12.71900       -1.9550412E-18
  -12.55750       -1.9586508E-18
  -12.39600       -1.9601869E-18
  -12.23450       -1.9588611E-18
  -12.07300       -1.9560346E-18
  -11.91150       -1.9542622E-18
  -11.75000       -1.9554339E-18
  -11.58850       -1.9593622E-18
  -11.42700       -1.9638722E-18
  -11.26550       -1.9663824E-18
  -11.10400       -1.9657922E-18
  -10.94250       -1.9632580E-18
  -10.78100       -1.9612684E-18
  -10.61950       -1.9617589E-18
  -10.45800       -1.9646950E-18
  -10.29650       -1.9681528E-18
  -10.13500       -1.9697668E-18
  -9.973500       -1.9684570E-18
  -9.812000       -1.9651985E-18
  -9.650500       -1.9623187E-18
  -9.489000       -1.9618607E-18
  -9.327500       -1.9641753E-18
  -9.166000       -1.9677409E-18
  -9.004500       -1.9702851E-18
  -8.843000       -1.9703963E-18
  -8.681500       -1.9684835E-18
  -8.520000       -1.9664612E-18
  -8.358500       -1.9663979E-18
  -8.197000       -1.9690460E-18
  -8.035500       -1.9732660E-18
  -7.874000       -1.9767948E-18
  -7.712500       -1.9778844E-18
  -7.551000       -1.9766289E-18
  -7.389500       -1.9749686E-18
  -7.228000       -1.9753007E-18
  -7.066500       -1.9787265E-18
  -6.905000       -1.9842419E-18
  -6.743500       -1.9895005E-18
  -6.582000       -1.9925602E-18
  -6.420500       -1.9933171E-18
  -6.259000       -1.9935361E-18
  -6.097500       -1.9954614E-18
  -5.936000       -2.0000650E-18
  -5.774500       -2.0062792E-18
  -5.613000       -2.0117874E-18
  -5.451500       -2.0147324E-18
  -5.290000       -2.0150107E-18
  -5.128500       -2.0142330E-18
  -4.967000       -2.0144747E-18
  -4.805500       -2.0167937E-18
  -4.644000       -2.0205539E-18
  -4.482500       -2.0239350E-18
  -4.321000       -2.0252432E-18
  -4.159500       -2.0241054E-18
  -3.998000       -2.0217438E-18
  -3.836500       -2.0201554E-18
  -3.675000       -2.0207510E-18
  -3.513500       -2.0233888E-18
  -3.352000       -2.0264773E-18
  -3.190500       -2.0280922E-18
  -3.029000       -2.0273740E-18
  -2.867500       -2.0252204E-18
  -2.706000       -2.0237342E-18
  -2.544500       -2.0247189E-18
  -2.383000       -2.0282839E-18
  -2.221500       -2.0326450E-18
  -2.060000       -2.0353772E-18
  -1.898500       -2.0351923E-18
  -1.737000       -2.0328706E-18
  -1.575500       -2.0306153E-18
  -1.414000       -2.0303398E-18
  -1.252500       -2.0322155E-18
  -1.091000       -2.0345769E-18
 -0.9295000       -2.0352140E-18
 -0.7680000       -2.0330542E-18
 -0.6065000       -2.0289642E-18
 -0.4450000       -2.0251015E-18
 -0.2835000       -2.0233572E-18
 -0.1220000       -2.0240828E-18
  3.9500002E-02   -2.0259909E-18
  0.2010000       -2.0271916E-18
  0.3625000       -2.0265365E-18
  0.5240000       -2.0243484E-18
  0.6855000       -2.0221206E-18
  0.8470000       -2.0214547E-18
   1.008500       -2.0229508E-18
   1.170000       -2.0257668E-18
   1.331500       -2.0281714E-18
   1.493000       -2.0287558E-18
   1.654500       -2.0274778E-18
   1.816000       -2.0257695E-18
   1.977500       -2.0255800E-18
   2.139000       -2.0279884E-18
   2.300500       -2.0323999E-18
   2.462000       -2.0369500E-18
   2.623500       -2.0398903E-18
   2.785000       -2.0409300E-18
   2.946500       -2.0414784E-18
   3.108000       -2.0435319E-18
   3.269500       -2.0480481E-18
   3.431000       -2.0541238E-18
   3.592500       -2.0596491E-18
   3.754000       -2.0629103E-18
   3.915500       -2.0638562E-18
   4.077000       -2.0640590E-18
   4.238500       -2.0654596E-18
   4.400000       -2.0689047E-18
   4.561500       -2.0735629E-18
   4.723000       -2.0775896E-18
   4.884500       -2.0794843E-18
   5.046000       -2.0791104E-18
   5.207500       -2.0776817E-18
   5.369000       -2.0768247E-18
   5.530500       -2.0774569E-18
   5.692000       -2.0792279E-18
   5.853500       -2.0808334E-18
   6.015000       -2.0809312E-18
   6.176500       -2.0790767E-18
   6.338000       -2.0760945E-18
   6.499500       -2.0736128E-18
   6.661000       -2.0729957E-18
   6.822500       -2.0743688E-18
   6.984000       -2.0764754E-18
   7.145500       -2.0775357E-18
   7.307000       -2.0765569E-18
   7.468500       -2.0740993E-18
   7.630000       -2.0718910E-18
   7.791500       -2.0715266E-18
   7.953000       -2.0732320E-18
   8.114500       -2.0756842E-18
   8.276000       -2.0770708E-18
   8.437500       -2.0765695E-18
   8.599000       -2.0750442E-18
   8.760500       -2.0743870E-18
   8.922000       -2.0760604E-18
   9.083500       -2.0800246E-18
   9.245000       -2.0848692E-18
   9.406500       -2.0889412E-18
   9.568000       -2.0915212E-18
   9.729500       -2.0931708E-18
   9.891000       -2.0950994E-18
   10.05250       -2.0981341E-18
   10.21400       -2.1020806E-18
   10.37550       -2.1058784E-18
   10.53700       -2.1083444E-18
   10.69850       -2.1089373E-18
   10.86000       -2.1080454E-18
   11.02150       -2.1066898E-18
   11.18300       -2.1058864E-18
   11.34450       -2.1060378E-18
   11.50600       -2.1066946E-18
   11.66750       -2.1068542E-18
   11.82900       -2.1056755E-18
   11.99050       -2.1031615E-18
   12.15200       -2.1002653E-18
   12.31350       -2.0982632E-18
   12.47500       -2.0978179E-18
   12.63650       -2.0984784E-18
   12.79800       -2.0990637E-18
   12.95950       -2.0986668E-18
   13.12100       -2.0974703E-18
   13.28250       -2.0966927E-18
   13.44400       -2.0976622E-18
   13.60550       -2.1007596E-18
   13.76700       -2.1051106E-18
   13.92850       -2.1092849E-18
   14.09000       -2.1123937E-18
   14.25150       -2.1146690E-18
   14.41300       -2.1170877E-18
   14.57450       -2.1204500E-18
   14.73600       -2.1247214E-18
   14.89750       -2.1291100E-18
   15.05900       -2.1326950E-18
   15.22050       -2.1350355E-18
   15.38200       -2.1363403E-18
   15.54350       -2.1371865E-18
   15.70500       -2.1380917E-18
   15.86650       -2.1392318E-18
   16.02800       -2.1404171E-18
   16.18950       -2.1412284E-18
   16.35100       -2.1412120E-18
   16.51250       -2.1401201E-18
   16.67400       -2.1381180E-18
   16.83550       -2.1358068E-18
   16.99700       -2.1339080E-18
   17.15850       -2.1327663E-18
   17.32000       -2.1320677E-18
   17.48150       -2.1310933E-18
   17.64300       -2.1293676E-18
   17.80450       -2.1271502E-18
   17.96600       -2.1253151E-18
   18.12750       -2.1247009E-18
   18.28900       -2.1254685E-18
   18.45050       -2.1270170E-18
   18.61200       -2.1285009E-18
   18.77350       -2.1294826E-18
   18.93500       -2.1301648E-18
   19.09650       -2.1310441E-18
   19.25800       -2.1323695E-18
   19.41950       -2.1339388E-18
   19.58100       -2.1353680E-18
   19.74250       -2.1364845E-18
   19.90400       -2.1374368E-18
   20.06550       -2.1384691E-18
   20.22700       -2.1396904E-18
   20.38850       -2.1411020E-18
   20.55000       -2.1427851E-18
   20.71150       -2.1449769E-18
   20.87300       -2.1478781E-18
   21.03450       -2.1513969E-18
   21.19600       -2.1551266E-18
   21.35750       -2.1586477E-18
   21.51900       -2.1618771E-18
   21.68050       -2.1650998E-18
   21.84200       -2.1686020E-18
   22.00350       -2.1722389E-18
   22.16500       -2.1754079E-18
   22.32650       -2.1775060E-18
   22.48800       -2.1784467E-18
   22.64950       -2.1787067E-18
   22.81100       -2.1788452E-18
   22.97250       -2.1789705E-18
   23.13400       -2.1786674E-18
   23.29550       -2.1774336E-18
   23.45700       -2.1751777E-18
   23.61850       -2.1723299E-18
   23.78000       -2.1695210E-18
   23.94150       -2.1671501E-18
   24.10300       -2.1652127E-18
   24.26450       -2.1634868E-18
   24.42600       -2.1618245E-18
   24.58750       -2.1602663E-18
   24.74900       -2.1589629E-18
   24.91050       -2.1580813E-18
   25.07200       -2.1578576E-18
   25.23350       -2.1586509E-18
   25.39500       -2.1607734E-18
   25.55650       -2.1641468E-18
   25.71800       -2.1681599E-18
   25.87950       -2.1720013E-18
   26.04100       -2.1752685E-18
   26.20250       -2.1782838E-18
   26.36400       -2.1817586E-18
   26.52550       -2.1860491E-18
   26.68700       -2.1906613E-18
   26.84850       -2.1944820E-18
   27.01000       -2.1965986E-18
   27.17150       -2.1970161E-18
   27.33300       -2.1966356E-18
   27.49450       -2.1964983E-18
   27.65600       -2.1969588E-18
   27.81750       -2.1975079E-18
   27.97900       -2.1973509E-18
   28.14050       -2.1961501E-18
   28.30200       -2.1942558E-18
   28.46350       -2.1923336E-18
   28.62500       -2.1908207E-18
   28.78650       -2.1897154E-18
   28.94800       -2.1887617E-18
   29.10950       -2.1877542E-18
   29.27100       -2.1866923E-18
   29.43250       -2.1857396E-18
   29.59400       -2.1851248E-18
   29.75550       -2.1850927E-18
   29.91700       -2.1858839E-18
   30.07850       -2.1876241E-18
   30.24000       -2.1901637E-18
   30.40150       -2.1930500E-18
   30.56300       -2.1957937E-18
   30.72450       -2.1982594E-18
   30.88600       -2.2007744E-18
   31.04750       -2.2037266E-18
   31.20900       -2.2069884E-18
   31.37050       -2.2097714E-18
   31.53200       -2.2111572E-18
   31.69350       -2.2108753E-18
   31.85500       -2.2096037E-18
   32.01650       -2.2084922E-18
   32.17800       -2.2082935E-18
   32.33950       -2.2088545E-18
   32.50100       -2.2093858E-18
   32.66250       -2.2092619E-18
   32.82400       -2.2086353E-18
   32.98550       -2.2083280E-18
   33.14700       -2.2091107E-18
   33.30850       -2.2110540E-18
   33.47000       -2.2135248E-18
   33.63150       -2.2157362E-18
   33.79300       -2.2173023E-18
   33.95450       -2.2183381E-18
   34.11600       -2.2192011E-18
   34.27750       -2.2202014E-18
   34.43900       -2.2215067E-18
   34.60050       -2.2231488E-18
   34.76200       -2.2250034E-18
   34.92350       -2.2267743E-18
   35.08500       -2.2280759E-18
   35.24650       -2.2286570E-18
   35.40800       -2.2286020E-18
   35.56950       -2.2282811E-18
   35.73100       -2.2280050E-18
   35.89250       -2.2276472E-18
   36.05400       -2.2266470E-18
   36.21550       -2.2245137E-18
   36.37700       -2.2214130E-18
   36.53850       -2.2182374E-18
   36.70000       -2.2160167E-18
   36.86150       -2.2151800E-18
   37.02300       -2.2153741E-18
   37.18450       -2.2159699E-18
   37.34600       -2.2167450E-18
   37.50750       -2.2181016E-18
   37.66900       -2.2206371E-18
   37.83050       -2.2245168E-18
   37.99200       -2.2292189E-18
   38.15350       -2.2338736E-18
   38.31500       -2.2378658E-18
   38.47650       -2.2411576E-18
   38.63800       -2.2440800E-18
   38.79950       -2.2468645E-18
   38.96100       -2.2494302E-18
   39.12250       -2.2515743E-18
   39.28400       -2.2532623E-18
   39.44550       -2.2546255E-18
   39.60700       -2.2557124E-18
   39.76850       -2.2563411E-18
   39.93000       -2.2562650E-18
   40.09150       -2.2554616E-18
   40.25300       -2.2541784E-18
   40.41450       -2.2526730E-18
   40.57600       -2.2509150E-18
   40.73750       -2.2485958E-18
   40.89900       -2.2454895E-18
   41.06050       -2.2418447E-18
   41.22200       -2.2384024E-18
   41.38350       -2.2359467E-18
   41.54500       -2.2347670E-18
   41.70650       -2.2345709E-18
   41.86800       -2.2349297E-18
   42.02950       -2.2357950E-18
   42.19100       -2.2375194E-18
   42.35250       -2.2403717E-18
   42.51400       -2.2440835E-18
   42.67550       -2.2479223E-18
   42.83700       -2.2511975E-18
   42.99850       -2.2536941E-18
   43.16000       -2.2556398E-18
   43.32150       -2.2573027E-18
   43.48300       -2.2586487E-18
   43.64450       -2.2593820E-18
   43.80600       -2.2592970E-18
   43.96750       -2.2585610E-18
   44.12900       -2.2576154E-18
   44.29050       -2.2568051E-18
   44.45200       -2.2561539E-18
   44.61350       -2.2555408E-18
   44.77500       -2.2550490E-18
   44.93650       -2.2550331E-18
   45.09800       -2.2557794E-18
   45.25950       -2.2571546E-18
   45.42100       -2.2586833E-18
   45.58250       -2.2600014E-18
   45.74400       -2.2612262E-18
   45.90550       -2.2628491E-18
   46.06700       -2.2652575E-18
   46.22850       -2.2683532E-18
   46.39000       -2.2716125E-18
   46.55150       -2.2745202E-18
   46.71300       -2.2769600E-18
   46.87450       -2.2791791E-18
   47.03600       -2.2813689E-18
   47.19750       -2.2833159E-18
   47.35900       -2.2845089E-18
   47.52050       -2.2845788E-18
   47.68200       -2.2835739E-18
   47.84350       -2.2817829E-18
   48.00500       -2.2793499E-18
   48.16650       -2.2761812E-18
   48.32800       -2.2722556E-18
   48.48950       -2.2679663E-18
   48.65100       -2.2640775E-18
   48.81250       -2.2612959E-18
   48.97400       -2.2598531E-18
   49.13550       -2.2594798E-18
   49.29700       -2.2597877E-18
   49.45850       -2.2606867E-18
   49.62000       -2.2624339E-18
   49.78150       -2.2652771E-18
   49.94300       -2.2690722E-18
   50.10450       -2.2733026E-18
   50.26600       -2.2774778E-18
   50.42750       -2.2814727E-18
   50.58900       -2.2854140E-18
   50.75050       -2.2892871E-18
   50.91200       -2.2927563E-18
   51.07350       -2.2954281E-18
   51.23500       -2.2972582E-18
   51.39650       -2.2986173E-18
   51.55800       -2.2999238E-18
   51.71950       -2.3012026E-18
   51.88100       -2.3020031E-18
   52.04250       -2.3017748E-18
   52.20400       -2.3003473E-18
   52.36550       -2.2980664E-18
   52.52700       -2.2954471E-18
   52.68850       -2.2927068E-18
   52.85000       -2.2896562E-18
   53.01150       -2.2860995E-18
   53.17300       -2.2822873E-18
   53.33450       -2.2789037E-18
   53.49600       -2.2765909E-18
   53.65750       -2.2755174E-18
   53.81900       -2.2754382E-18
   53.98050       -2.2761213E-18
   54.14200       -2.2776532E-18
   54.30350       -2.2803041E-18
   54.46500       -2.2841168E-18
   54.62650       -2.2886371E-18
   54.78800       -2.2930536E-18
   54.94950       -2.2966372E-18
   55.11100       -2.2991041E-18
   55.27250       -2.3006225E-18
   55.43400       -2.3015182E-18
   55.59550       -2.3020234E-18
   55.75700       -2.3022808E-18
   55.91850       -2.3024707E-18
   56.08000       -2.3027672E-18
   56.24150       -2.3031204E-18
   56.40300       -2.3032118E-18
   56.56450       -2.3027829E-18
   56.72600       -2.3020461E-18
   56.88750       -2.3016764E-18
   57.04900       -2.3022755E-18
   57.21050       -2.3037578E-18
   57.37200       -2.3052833E-18
   57.53350       -2.3058770E-18
   57.69500       -2.3052696E-18
   57.85650       -2.3042229E-18
   58.01800       -2.3039995E-18
   58.17950       -2.3053751E-18
   58.34100       -2.3080397E-18
   58.50250       -2.3109203E-18
   58.66400       -2.3131347E-18
   58.82550       -2.3146631E-18
   58.98700       -2.3161731E-18
   59.14850       -2.3182456E-18
   59.31000       -2.3207747E-18
   59.47150       -2.3230263E-18
   59.63300       -2.3241734E-18
   59.79450       -2.3238026E-18
   59.95600       -2.3220554E-18
   60.11750       -2.3194341E-18
   60.27900       -2.3164982E-18
   60.44050       -2.3136424E-18
   60.60200       -2.3110310E-18
   60.76350       -2.3086458E-18
   60.92500       -2.3064029E-18
   61.08650       -2.3043358E-18
   61.24800       -2.3027755E-18
   61.40950       -2.3023259E-18
   61.57100       -2.3034614E-18
   61.73250       -2.3059655E-18
   61.89400       -2.3087630E-18
   62.05550       -2.3105373E-18
   62.21700       -2.3107501E-18
   62.37850       -2.3101707E-18
   62.54000       -2.3103324E-18
   62.70150       -2.3122949E-18
   62.86300       -2.3157517E-18
   63.02450       -2.3192513E-18
   63.18600       -2.3213906E-18
   63.34750       -2.3219849E-18
   63.50900       -2.3222417E-18
   63.67050       -2.3237466E-18
   63.83200       -2.3270932E-18
   63.99350       -2.3313081E-18
   64.15500       -2.3345336E-18
   64.31650       -2.3353755E-18
   64.47800       -2.3338144E-18
   64.63950       -2.3310680E-18
   64.80100       -2.3286873E-18
   64.96250       -2.3276273E-18
   65.12400       -2.3278449E-18
   65.28550       -2.3285475E-18
   65.44700       -2.3288517E-18
   65.60850       -2.3284776E-18
   65.77000       -2.3280351E-18
   65.93150       -2.3286873E-18
   66.09300       -2.3313391E-18
   66.25450       -2.3358660E-18
   66.41600       -2.3409542E-18
   66.57750       -2.3447818E-18
   66.73900       -2.3461733E-18
   66.90050       -2.3454377E-18
   67.06200       -2.3441320E-18
   67.22350       -2.3437995E-18
   67.38500       -2.3446391E-18
   67.54650       -2.3452969E-18
   67.70800       -2.3440609E-18
   67.86950       -2.3404728E-18
   68.03100       -2.3359374E-18
   68.19250       -2.3327527E-18
   68.35400       -2.3323532E-18
   68.51550       -2.3341939E-18
   68.67700       -2.3361713E-18
   68.83850       -2.3362298E-18
   69.00000       -2.3339013E-18
   69.16150       -2.3305779E-18
   69.32300       -2.3283608E-18
   69.48450       -2.3284692E-18
   69.64600       -2.3304519E-18
   69.80750       -2.3327248E-18
   69.96900       -2.3338634E-18
   70.13050       -2.3336428E-18
   70.29200       -2.3331645E-18
   70.45350       -2.3341085E-18
   70.61500       -2.3375963E-18
   70.77650       -2.3433458E-18
   70.93800       -2.3496541E-18
   71.09950       -2.3543332E-18
   71.26100       -2.3560753E-18
   71.42250       -2.3553075E-18
   71.58400       -2.3538785E-18
   71.74550       -2.3537135E-18
   71.90700       -2.3553705E-18
   72.06850       -2.3575954E-18
   72.23000       -2.3583021E-18
   72.39150       -2.3563330E-18
   72.55300       -2.3526090E-18
   72.71450       -2.3496115E-18
   72.87600       -2.3494787E-18
   73.03750       -2.3522512E-18
   73.19900       -2.3557564E-18
   73.36050       -2.3572699E-18
   73.52200       -2.3555755E-18
   73.68350       -2.3517938E-18
   73.84500       -2.3483910E-18
   74.00650       -2.3472484E-18
   74.16800       -2.3483124E-18
   74.32950       -2.3498121E-18
   74.49100       -2.3497955E-18
   74.65250       -2.3477460E-18
   74.81400       -2.3450372E-18
   74.97550       -2.3439298E-18
   75.13700       -2.3459593E-18
   75.29850       -2.3508837E-18
   75.46000       -2.3568379E-18
   75.62150       -2.3614981E-18
   75.78300       -2.3634802E-18
   75.94450       -2.3631514E-18
   76.10600       -2.3623205E-18
   76.26750       -2.3629194E-18
   76.42900       -2.3655267E-18
   76.59050       -2.3688511E-18
   76.75200       -2.3706657E-18
   76.91350       -2.3695720E-18
   77.07500       -2.3662467E-18
   77.23650       -2.3631384E-18
   77.39800       -2.3627281E-18
   77.55950       -2.3656263E-18
   77.72100       -2.3699928E-18
   77.88250       -2.3728491E-18
   78.04400       -2.3723639E-18
   78.20550       -2.3692665E-18
   78.36700       -2.3662101E-18
   78.52850       -2.3656044E-18
   78.69000       -2.3677313E-18
   78.85150       -2.3706620E-18
   79.01300       -2.3719251E-18
   79.17450       -2.3705057E-18
   79.33600       -2.3676105E-18
   79.49750       -2.3657140E-18
   79.65900       -2.3666750E-18
   79.82050       -2.3703568E-18
   79.98200       -2.3747388E-18
   80.14350       -2.3773642E-18
   80.30500       -2.3770046E-18
   80.46650       -2.3743680E-18
   80.62800       -2.3714714E-18
   80.78950       -2.3702290E-18
   80.95100       -2.3712086E-18
   81.11250       -2.3732955E-18
   81.27400       -2.3744858E-18
   81.43550       -2.3733720E-18
   81.59700       -2.3703512E-18
   81.75850       -2.3675725E-18
   81.92000       -2.3674817E-18
   82.08150       -2.3709587E-18
   82.24300       -2.3764996E-18
   82.40450       -2.3811657E-18
   82.56600       -2.3826712E-18
   82.72750       -2.3810369E-18
   82.88900       -2.3785479E-18
   83.05050       -2.3779658E-18
   83.21200       -2.3803665E-18
   83.37350       -2.3843154E-18
   83.53500       -2.3870995E-18
   83.69650       -2.3869939E-18
   83.85800       -2.3846569E-18
   84.01950       -2.3825496E-18
   84.18100       -2.3829613E-18
   84.34250       -2.3862907E-18
   84.50400       -2.3908589E-18
   84.66550       -2.3942230E-18
   84.82700       -2.3948928E-18
   84.98850       -2.3932366E-18
   85.15000       -2.3910255E-18
   85.31150       -2.3900521E-18
   85.47300       -2.3908717E-18
   85.63450       -2.3925217E-18
   85.79600       -2.3933263E-18
   85.95750       -2.3921261E-18
   86.11900       -2.3891251E-18
   86.28050       -2.3858441E-18
   86.44200       -2.3841821E-18
   86.60350       -2.3851054E-18
   86.76500       -2.3878308E-18
   86.92650       -2.3902302E-18
   87.08800       -2.3903590E-18
   87.24950       -2.3880173E-18
   87.41100       -2.3850216E-18
   87.57250       -2.3838626E-18
   87.73400       -2.3857458E-18
   87.89550       -2.3895972E-18
   88.05700       -2.3928437E-18
   88.21850       -2.3934072E-18
   88.38000       -2.3913638E-18
   88.54150       -2.3889286E-18
   88.70300       -2.3887119E-18
   88.86450       -2.3916319E-18
   89.02600       -2.3961909E-18
   89.18750       -2.3996712E-18
   89.34900       -2.4001932E-18
   89.51050       -2.3979780E-18
   89.67200       -2.3949561E-18
   89.83350       -2.3932449E-18
   89.99500       -2.3937209E-18
   90.15650       -2.3956087E-18
   90.31800       -2.3972255E-18
   90.47950       -2.3972718E-18
   90.64100       -2.3957831E-18
   90.80250       -2.3941159E-18
   90.96400       -2.3940098E-18
   91.12550       -2.3964057E-18
   91.28700       -2.4007914E-18
   91.44850       -2.4054745E-18
   91.61000       -2.4086261E-18
   91.77150       -2.4094746E-18
   91.93300       -2.4088693E-18
   92.09450       -2.4086709E-18
   92.25600       -2.4102827E-18
   92.41750       -2.4134272E-18
   92.57900       -2.4162607E-18
   92.74050       -2.4168439E-18
   92.90200       -2.4147617E-18
   93.06350       -2.4115326E-18
   93.22500       -2.4094495E-18
   93.38650       -2.4097841E-18
   93.54800       -2.4117915E-18
   93.70950       -2.4133011E-18
   93.87100       -2.4124565E-18
   94.03250       -2.4092241E-18
   94.19400       -2.4054305E-18
   94.35550       -2.4033096E-18
   94.51700       -2.4037840E-18
   94.67850       -2.4058800E-18
   94.84000       -2.4076231E-18
   95.00150       -2.4075685E-18
   95.16300       -2.4057719E-18
   95.32450       -2.4036462E-18
   95.48600       -2.4029425E-18
   95.64750       -2.4045872E-18
   95.80900       -2.4081045E-18
   95.97050       -2.4119757E-18
   96.13200       -2.4146926E-18
   96.29350       -2.4157787E-18
   96.45500       -2.4160610E-18
   96.61650       -2.4170240E-18
   96.77800       -2.4196780E-18
   96.93950       -2.4237081E-18
   97.10100       -2.4275129E-18
   97.26250       -2.4292285E-18
   97.42400       -2.4281097E-18
   97.58550       -2.4251972E-18
   97.74700       -2.4226036E-18
   97.90850       -2.4218595E-18
   98.07000       -2.4226900E-18
   98.23150       -2.4232872E-18
   98.39300       -2.4218717E-18
   98.55450       -2.4182282E-18
   98.71600       -2.4139575E-18
   98.87750       -2.4112737E-18
   99.03900       -2.4113115E-18
   99.20050       -2.4132965E-18
   99.36200       -2.4152371E-18
   99.52350       -2.4155895E-18
   99.68500       -2.4145222E-18
   99.84650       -2.4137476E-18
   100.0080       -2.4151165E-18
   100.1695       -2.4191751E-18
   100.3310       -2.4248032E-18
   100.4925       -2.4300536E-18
   100.6540       -2.4334324E-18
   100.8155       -2.4347507E-18
   100.9770       -2.4350741E-18
   101.1385       -2.4358703E-18
   101.3000       -2.4379124E-18
   101.4615       -2.4406657E-18
   101.6230       -2.4426036E-18
   101.7845       -2.4422648E-18
   101.9460       -2.4393128E-18
   102.1075       -2.4348454E-18
   102.2690       -2.4307343E-18
   102.4305       -2.4284079E-18
   102.5920       -2.4278870E-18
   102.7535       -2.4278309E-18
   102.9150       -2.4266778E-18
   103.0765       -2.4240627E-18
   103.2380       -2.4213001E-18
   103.3995       -2.4204128E-18
   103.5610       -2.4224629E-18
   103.7225       -2.4266146E-18
   103.8840       -2.4307174E-18
   104.0455       -2.4329272E-18
   104.2070       -2.4330298E-18
   104.3685       -2.4324631E-18
   104.5300       -2.4330471E-18
   104.6915       -2.4354586E-18
   104.8530       -2.4386699E-18
   105.0145       -2.4407953E-18
   105.1760       -2.4406440E-18
   105.3375       -2.4386742E-18
   105.4990       -2.4365986E-18
   105.6605       -2.4360486E-18
   105.8220       -2.4374142E-18
   105.9835       -2.4396538E-18
   106.1450       -2.4410844E-18
   106.3065       -2.4405348E-18
   106.4680       -2.4381393E-18
   106.6295       -2.4352807E-18
   106.7910       -2.4336839E-18
   106.9525       -2.4342544E-18
   107.1140       -2.4364613E-18
   107.2755       -2.4387268E-18
   107.4370       -2.4395668E-18
   107.5985       -2.4386778E-18
   107.7600       -2.4372116E-18
   107.9215       -2.4369963E-18
   108.0830       -2.4391743E-18
   108.2445       -2.4432368E-18
   108.4060       -2.4472647E-18
   108.5675       -2.4493401E-18
   108.7290       -2.4490303E-18
   108.8905       -2.4477025E-18
   109.0520       -2.4473706E-18
   109.2135       -2.4490415E-18
   109.3750       -2.4519370E-18
   109.5365       -2.4541663E-18
   109.6980       -2.4542680E-18
   109.8595       -2.4523800E-18
   110.0210       -2.4501379E-18
   110.1825       -2.4493831E-18
   110.3440       -2.4507244E-18
   110.5055       -2.4530864E-18
   110.6670       -2.4546018E-18
   110.8285       -2.4540741E-18
   110.9900       -2.4518316E-18
   111.1515       -2.4493837E-18
   111.3130       -2.4482702E-18
   111.4745       -2.4489991E-18
   111.6360       -2.4507624E-18
   111.7975       -2.4520593E-18
   111.9590       -2.4518080E-18
   112.1205       -2.4502140E-18
   112.2820       -2.4487340E-18
   112.4435       -2.4490907E-18
   112.6050       -2.4519910E-18
   112.7665       -2.4564992E-18
   112.9280       -2.4605563E-18
   113.0895       -2.4623277E-18
   113.2510       -2.4614426E-18
   113.4125       -2.4592462E-18
   113.5740       -2.4578040E-18
   113.7355       -2.4583026E-18
   113.8970       -2.4600788E-18
   114.0585       -2.4611094E-18
   114.2200       -2.4596507E-18
   114.3815       -2.4557044E-18
   114.5430       -2.4510975E-18
   114.7045       -2.4481161E-18
   114.8660       -2.4478241E-18
   115.0275       -2.4493602E-18
   115.1890       -2.4506952E-18
   115.3505       -2.4502331E-18
   115.5120       -2.4480263E-18
   115.6735       -2.4456989E-18
   115.8350       -2.4451593E-18
   115.9965       -2.4471375E-18
   116.1580       -2.4506816E-18
   116.3195       -2.4539521E-18
   116.4810       -2.4556118E-18
   116.6425       -2.4557559E-18
   116.8040       -2.4557551E-18
   116.9655       -2.4572128E-18
   117.1270       -2.4607556E-18
   117.2885       -2.4654794E-18
   117.4500       -2.4694636E-18
   117.6115       -2.4710730E-18
   117.7730       -2.4701375E-18
   117.9345       -2.4680952E-18
   118.0960       -2.4669514E-18
   118.2575       -2.4677819E-18
   118.4190       -2.4699177E-18
   118.5805       -2.4714178E-18
   118.7420       -2.4705538E-18