  -27.90000        8.6496722E-18
  -27.73850        8.6786284E-18
  -27.57700        8.7188129E-18
  -27.41550        8.7479404E-18
  -27.25400        8.7547497E-18
  -27.09250        8.7464440E-18
  -26.93100        8.7427068E-18
  -26.76950        8.7607063E-18
  -26.60800        8.8020430E-18
  -26.44650        8.8511336E-18
  -26.28500        8.8861896E-18
  -26.12350        8.8948361E-18
  -25.96200        8.8830198E-18
  -25.80050        8.8707519E-18
  -25.63900        8.8777531E-18
  -25.47750        8.9094003E-18
  -25.31600        8.9531068E-18
  -25.15450        8.9876821E-18
  -24.99300        8.9988267E-18
  -24.83150        8.9894837E-18
  -24.67000        8.9775756E-18
  -24.50850        8.9828291E-18
  -24.34700        9.0123313E-18
  -24.18550        9.0553480E-18
  -24.02400        9.0911442E-18
  -23.86250        9.1041053E-18
  -23.70100        9.0951139E-18
  -23.53950        9.0809104E-18
  -23.37800        9.0819146E-18
  -23.21650        9.1073669E-18
  -23.05500        9.1486035E-18
  -22.89350        9.1853411E-18
  -22.73200        9.2004065E-18
  -22.57050        9.1921786E-18
  -22.40900        9.1757251E-18
  -22.24750        9.1718084E-18
  -22.08600        9.1917716E-18
  -21.92450        9.2293206E-18
  -21.76300        9.2651772E-18
  -21.60150        9.2812295E-18
  -21.44000        9.2738933E-18
  -21.27850        9.2569129E-18
  -21.11700        9.2515263E-18
  -20.95550        9.2710734E-18
  -20.79400        9.3112148E-18
  -20.63250        9.3528658E-18
  -20.47100        9.3757730E-18
  -20.30950        9.3729241E-18
  -20.14800        9.3553929E-18
  -19.98650        9.3441482E-18
  -19.82500        9.3547758E-18
  -19.66350        9.3862169E-18
  -19.50200        9.4216542E-18
  -19.34050        9.4409060E-18
  -19.17900        9.4353002E-18
  -19.01750        9.4142526E-18
  -18.85600        9.3987462E-18
  -18.69450        9.4064010E-18
  -18.53300        9.4389150E-18
  -18.37150        9.4808993E-18
  -18.21000        9.5109012E-18
  -18.04850        9.5166493E-18
  -17.88700        9.5035128E-18
  -17.72550        9.4901662E-18
  -17.56400        9.4946810E-18
  -17.40250        9.5211987E-18
  -17.24100        9.5568618E-18
  -17.07950        9.5811851E-18
  -16.91800        9.5810494E-18
  -16.75650        9.5604071E-18
  -16.59500        9.5376712E-18
  -16.43350        9.5326990E-18
  -16.27200        9.5528070E-18
  -16.11050        9.5879001E-18
  -15.94900        9.6181857E-18
  -15.78750        9.6287843E-18
  -15.62600        9.6205696E-18
  -15.46450        9.6093820E-18
  -15.30300        9.6142359E-18
  -15.14150        9.6431583E-18
  -14.98000        9.6870162E-18
  -14.81850        9.7258391E-18
  -14.65700        9.7430469E-18
  -14.49550        9.7372583E-18
  -14.33400        9.7230738E-18
  -14.17250        9.7202838E-18
  -14.01100        9.7393486E-18
  -13.84950        9.7737180E-18
  -13.68800        9.8045801E-18
  -13.52650        9.8146005E-18
  -13.36500        9.8006477E-18
  -13.20350        9.7762450E-18
  -13.04200        9.7619455E-18
  -12.88050        9.7705937E-18
  -12.71900        9.7981752E-18
  -12.55750        9.8269189E-18
  -12.39600        9.8383803E-18
  -12.23450        9.8270471E-18
  -12.07300        9.8045470E-18
  -11.91150        9.7913766E-18
  -11.75000        9.8021060E-18
  -11.58850        9.8347730E-18
  -11.42700        9.8721475E-18
  -11.26550        9.8939735E-18
  -11.10400        9.8913629E-18
  -10.94250        9.8729490E-18
  -10.78100        9.8583865E-18
  -10.61950        9.8639526E-18
  -10.45800        9.8906904E-18
  -10.29650        9.9236941E-18
  -10.13500        9.9430278E-18
  -9.973500        9.9383468E-18
  -9.812000        9.9165969E-18
  -9.650500        9.8971987E-18
  -9.489000        9.8982194E-18
  -9.327500        9.9235386E-18
  -9.166000        9.9602670E-18
  -9.004500        9.9882348E-18
  -8.843000        9.9946108E-18
  -8.681500        9.9830311E-18
  -8.520000        9.9706597E-18
  -8.358500        9.9753920E-18
  -8.197000        1.0002576E-17
  -8.035500        1.0040930E-17
  -7.874000        1.0070641E-17
  -7.712500        1.0077695E-17
  -7.551000        1.0064056E-17
  -7.389500        1.0046248E-17
  -7.228000        1.0043438E-17
  -7.066500        1.0063675E-17
  -6.905000        1.0098282E-17
  -6.743500        1.0128438E-17
  -6.582000        1.0139096E-17
  -6.420500        1.0130063E-17
  -6.259000        1.0116129E-17
  -6.097500        1.0116166E-17
  -5.936000        1.0139178E-17
  -5.774500        1.0177484E-17
  -5.613000        1.0212057E-17
  -5.451500        1.0226159E-17
  -5.290000        1.0217348E-17
  -5.128500        1.0199125E-17
  -4.967000        1.0191016E-17
  -4.805500        1.0204314E-17
  -4.644000        1.0233894E-17
  -4.482500        1.0262045E-17
  -4.321000        1.0271535E-17
  -4.159500        1.0258356E-17
  -3.998000        1.0234850E-17
  -3.836500        1.0220920E-17
  -3.675000        1.0229729E-17
  -3.513500        1.0258293E-17
  -3.352000        1.0289793E-17
  -3.190500        1.0305928E-17
  -3.029000        1.0300280E-17
  -2.867500        1.0282963E-17
  -2.706000        1.0273194E-17
  -2.544500        1.0285192E-17
  -2.383000        1.0317698E-17
  -2.221500        1.0354731E-17
  -2.060000        1.0377016E-17
  -1.898500        1.0375776E-17
  -1.737000        1.0358878E-17
  -1.575500        1.0344894E-17
  -1.414000        1.0349451E-17
  -1.252500        1.0373828E-17
  -1.091000        1.0404097E-17
 -0.9295000        1.0421395E-17
 -0.7680000        1.0415807E-17
 -0.6065000        1.0393738E-17
 -0.4450000        1.0373397E-17
 -0.2835000        1.0371724E-17
 -0.1220000        1.0392291E-17
  3.9500002E-02    1.0422950E-17
  0.2010000        1.0444881E-17
  0.3625000        1.0446377E-17
  0.5240000        1.0431300E-17
  0.6855000        1.0416065E-17
  0.8470000        1.0417444E-17
   1.008500        1.0440132E-17
   1.170000        1.0473178E-17
   1.331500        1.0497852E-17
   1.493000        1.0501175E-17
   1.654500        1.0485249E-17
   1.816000        1.0465635E-17
   1.977500        1.0460012E-17
   2.139000        1.0475454E-17
   2.300500        1.0503563E-17
   2.462000        1.0526960E-17
   2.623500        1.0532292E-17
   2.785000        1.0520182E-17
   2.946500        1.0504851E-17
   3.108000        1.0503711E-17
   3.269500        1.0524582E-17
   3.431000        1.0559895E-17
   3.592500        1.0592106E-17
   3.754000        1.0606335E-17
   3.915500        1.0600998E-17
   4.077000        1.0588676E-17
   4.238500        1.0586643E-17
   4.400000        1.0604047E-17
   4.561500        1.0635136E-17
   4.723000        1.0663478E-17
   4.884500        1.0674036E-17
   5.046000        1.0664246E-17
   5.207500        1.0645976E-17
   5.369000        1.0636964E-17
   5.530500        1.0648001E-17
   5.692000        1.0675196E-17
   5.853500        1.0702979E-17
   6.015000        1.0715584E-17
   6.176500        1.0708604E-17
   6.338000        1.0692204E-17
   6.499500        1.0683641E-17
   6.661000        1.0694613E-17
   6.822500        1.0722666E-17
   6.984000        1.0752913E-17
   7.145500        1.0768786E-17
   7.307000        1.0763960E-17
   7.468500        1.0746788E-17
   7.630000        1.0734066E-17
   7.791500        1.0738738E-17
   7.953000        1.0760539E-17
   8.114500        1.0786344E-17
   8.276000        1.0799915E-17
   8.437500        1.0793864E-17
   8.599000        1.0775120E-17
   8.760500        1.0759965E-17
   8.922000        1.0762344E-17
   9.083500        1.0783978E-17
   9.245000        1.0813414E-17
   9.406500        1.0834615E-17
   9.568000        1.0838722E-17
   9.729500        1.0830360E-17
   9.891000        1.0823972E-17
   10.05250        1.0832944E-17
   10.21400        1.0859560E-17
   10.37550        1.0893140E-17
   10.53700        1.0917681E-17
   10.69850        1.0923357E-17
   10.86000        1.0913449E-17
   11.02150        1.0901684E-17
   11.18300        1.0902018E-17
   11.34450        1.0918417E-17
   11.50600        1.0942132E-17
   11.66750        1.0958418E-17
   11.82900        1.0957660E-17
   11.99050        1.0942657E-17
   12.15200        1.0926714E-17
   12.31350        1.0923972E-17
   12.47500        1.0939111E-17
   12.63650        1.0964012E-17
   12.79800        1.0983787E-17
   12.95950        1.0987740E-17
   13.12100        1.0977188E-17
   13.28250        1.0964420E-17
   13.44400        1.0963600E-17
   13.60550        1.0980299E-17
   13.76700        1.1007359E-17
   13.92850        1.1030080E-17
   14.09000        1.1036928E-17
   14.25150        1.1027928E-17
   14.41300        1.1014619E-17
   14.57450        1.1011619E-17
   14.73600        1.1025985E-17
   14.89750        1.1052131E-17
   15.05900        1.1075996E-17
   15.22050        1.1085396E-17
   15.38200        1.1078923E-17
   15.54350        1.1066941E-17
   15.70500        1.1063939E-17
   15.86650        1.1077909E-17
   16.02800        1.1104507E-17
   16.18950        1.1130235E-17
   16.35100        1.1142235E-17
   16.51250        1.1137529E-17
   16.67400        1.1124926E-17
   16.83550        1.1118350E-17
   16.99700        1.1126532E-17
   17.15850        1.1146709E-17
   17.32000        1.1166847E-17
   17.48150        1.1174691E-17
   17.64300        1.1166885E-17
   17.80450        1.1151497E-17
   17.96600        1.1142163E-17
   18.12750        1.1148197E-17
   18.28900        1.1167976E-17
   18.45050        1.1190387E-17
   18.61200        1.1203189E-17
   18.77350        1.1202069E-17
   18.93500        1.1193692E-17
   19.09650        1.1190544E-17
   19.25800        1.1201451E-17
   19.41950        1.1224811E-17
   19.58100        1.1249574E-17
   19.74250        1.1263225E-17
   19.90400        1.1260885E-17
   20.06550        1.1248790E-17
   20.22700        1.1239602E-17
   20.38850        1.1243043E-17
   20.55000        1.1258827E-17
   20.71150        1.1277087E-17
   20.87300        1.1285954E-17
   21.03450        1.1280613E-17
   21.19600        1.1267105E-17
   21.35750        1.1258060E-17
   21.51900        1.1263527E-17
   21.68050        1.1283668E-17
   21.84200        1.1308691E-17
   22.00350        1.1326051E-17
   22.16500        1.1329597E-17
   22.32650        1.1323930E-17
   22.48800        1.1320805E-17
   22.64950        1.1330272E-17
   22.81100        1.1353103E-17
   22.97250        1.1380082E-17
   23.13400        1.1398632E-17
   23.29550        1.1401906E-17
   23.45700        1.1393638E-17
   23.61850        1.1385235E-17
   23.78000        1.1387282E-17
   23.94150        1.1401761E-17
   24.10300        1.1420733E-17
   24.26450        1.1432414E-17
   24.42600        1.1430108E-17
   24.58750        1.1417371E-17
   24.74900        1.1405568E-17
   24.91050        1.1405659E-17
   25.07200        1.1420310E-17
   25.23350        1.1442126E-17
   25.39500        1.1459273E-17
   25.55650        1.1464271E-17
   25.71800        1.1459411E-17
   25.87950        1.1454806E-17
   26.04100        1.1460581E-17
   26.20250        1.1479079E-17
   26.36400        1.1502903E-17
   26.52550        1.1520242E-17
   26.68700        1.1523518E-17
   26.84850        1.1514923E-17
   27.01000        1.1504749E-17
   27.17150        1.1503782E-17
   27.33300        1.1515438E-17
   27.49450        1.1533438E-17
   27.65600        1.1546737E-17
   27.81750        1.1547952E-17
   27.97900        1.1539005E-17
   28.14050        1.1529747E-17
   28.30200        1.1530623E-17
   28.46350        1.1544841E-17
   28.62500        1.1565897E-17
   28.78650        1.1582301E-17
   28.94800        1.1586004E-17
   29.10950        1.1578284E-17
   29.27100        1.1568745E-17
   29.43250        1.1568180E-17
   29.59400        1.1580604E-17
   29.75550        1.1600392E-17
   29.91700        1.1616607E-17
   30.07850        1.1621285E-17
   30.24000        1.1615476E-17
   30.40150        1.1608492E-17
   30.56300        1.1610945E-17
   30.72450        1.1626727E-17
   30.88600        1.1649948E-17
   31.04750        1.1669139E-17
   31.20900        1.1675639E-17
   31.37050        1.1669930E-17
   31.53200        1.1661193E-17
   31.69350        1.1660398E-17
   31.85500        1.1672095E-17
   32.01650        1.1691014E-17
   32.17800        1.1706012E-17
   32.33950        1.1708410E-17
   32.50100        1.1698494E-17
   32.66250        1.1685351E-17
   32.82400        1.1680146E-17
   32.98550        1.1687886E-17
   33.14700        1.1703788E-17
   33.30850        1.1716986E-17
   33.47000        1.1718818E-17
   33.63150        1.1709510E-17
   33.79300        1.1698263E-17
   33.95450        1.1696658E-17
   34.11600        1.1710261E-17
   34.27750        1.1734611E-17
   34.43900        1.1758561E-17
   34.60050        1.1772463E-17
   34.76200        1.1775125E-17
   34.92350        1.1774357E-17
   35.08500        1.1780720E-17
   35.24650        1.1799171E-17
   35.40800        1.1824888E-17
   35.56950        1.1846475E-17
   35.73100        1.1854164E-17
   35.89250        1.1846960E-17
   36.05400        1.1833374E-17
   36.21550        1.1825208E-17
   36.37700        1.1828993E-17
   36.53850        1.1841462E-17
   36.70000        1.1852415E-17
   36.86150        1.1852797E-17
   37.02300        1.1841895E-17
   37.18450        1.1828229E-17
   37.34600        1.1823384E-17
   37.50750        1.1833415E-17
   37.66900        1.1854235E-17
   37.83050        1.1874454E-17
   37.99200        1.1883635E-17
   38.15350        1.1879842E-17
   38.31500        1.1870915E-17
   38.47650        1.1868475E-17
   38.63800        1.1879124E-17
   38.79950        1.1899380E-17
   38.96100        1.1918166E-17
   39.12250        1.1925024E-17
   39.28400        1.1917984E-17
   39.44550        1.1905175E-17
   39.60700        1.1898924E-17
   39.76850        1.1906682E-17
   39.93000        1.1925463E-17
   40.09150        1.1944018E-17
   40.25300        1.1951168E-17
   40.41450        1.1944178E-17
   40.57600        1.1930936E-17
   40.73750        1.1924237E-17
   40.89900        1.1932388E-17
   41.06050        1.1953096E-17
   41.22200        1.1975186E-17
   41.38350        1.1986879E-17
   41.54500        1.1984499E-17
   41.70650        1.1975117E-17
   41.86800        1.1971175E-17
   42.02950        1.1981062E-17
   42.19100        1.2002684E-17
   42.35250        1.2024832E-17
   42.51400        1.2035387E-17
   42.67550        1.2030262E-17
   42.83700        1.2016462E-17
   42.99850        1.2006982E-17
   43.16000        1.2011306E-17
   43.32150        1.2028559E-17
   43.48300        1.2048324E-17
   43.64450        1.2058537E-17
   43.80600        1.2054575E-17
   43.96750        1.2042789E-17
   44.12900        1.2035819E-17
   44.29050        1.2043124E-17
   44.45200        1.2063768E-17
   44.61350        1.2086859E-17
   44.77500        1.2099403E-17
   44.93650        1.2095809E-17
   45.09800        1.2082014E-17
   45.25950        1.2071151E-17
   45.42100        1.2073897E-17
   45.58250        1.2090652E-17
   45.74400        1.2111360E-17
   45.90550        1.2123162E-17
   46.06700        1.2120204E-17
   46.22850        1.2108257E-17
   46.39000        1.2100629E-17
   46.55150        1.2108322E-17
   46.71300        1.2131708E-17
   46.87450        1.2159960E-17
   47.03600        1.2178696E-17
   47.19750        1.2180279E-17
   47.35900        1.2169170E-17
   47.52050        1.2158398E-17
   47.68200        1.2159727E-17
   47.84350        1.2174838E-17
   48.00500        1.2194043E-17
   48.16650        1.2203547E-17
   48.32800        1.2195853E-17
   48.48950        1.2175625E-17
   48.65100        1.2156605E-17
   48.81250        1.2151802E-17
   48.97400        1.2164134E-17
   49.13550        1.2184419E-17
   49.29700        1.2198227E-17
   49.45850        1.2196594E-17
   49.62000        1.2182722E-17
   49.78150        1.2169661E-17
   49.94300        1.2170685E-17
   50.10450        1.2189404E-17
   50.26600        1.2216980E-17
   50.42750        1.2238510E-17
   50.58900        1.2243898E-17
   50.75050        1.2235211E-17
   50.91200        1.2225035E-17
   51.07350        1.2227017E-17
   51.23500        1.2245535E-17
   51.39650        1.2272210E-17
   51.55800        1.2291858E-17
   51.71950        1.2293587E-17
   51.88100        1.2278815E-17
   52.04250        1.2260295E-17
   52.20400        1.2252862E-17
   52.36550        1.2262695E-17
   52.52700        1.2283015E-17
   52.68850        1.2299373E-17
   52.85000        1.2300606E-17
   53.01150        1.2287349E-17
   53.17300        1.2271790E-17
   53.33450        1.2268771E-17
   53.49600        1.2284776E-17
   53.65750        1.2312960E-17
   53.81900        1.2337917E-17
   53.98050        1.2346736E-17
   54.14200        1.2338244E-17
   54.30350        1.2323664E-17
   54.46500        1.2318186E-17
   54.62650        1.2329630E-17
   54.78800        1.2352615E-17
   54.94950        1.2372552E-17
   55.11100        1.2376596E-17
   55.27250        1.2363435E-17
   55.43400        1.2344604E-17
   55.59550        1.2336251E-17
   55.75700        1.2347351E-17
   55.91850        1.2373077E-17
   56.08000        1.2398256E-17
   56.24150        1.2408434E-17
   56.40300        1.2400413E-17
   56.56450        1.2384505E-17
   56.72600        1.2376778E-17
   56.88750        1.2387043E-17
   57.04900        1.2411442E-17
   57.21050        1.2435196E-17
   57.37200        1.2443478E-17
   57.53350        1.2432438E-17
   57.69500        1.2412193E-17
   57.85650        1.2399579E-17
   58.01800        1.2405915E-17
   58.17950        1.2428734E-17
   58.34100        1.2453566E-17
   58.50250        1.2464502E-17
   58.66400        1.2455830E-17
   58.82550        1.2436207E-17
   58.98700        1.2422286E-17
   59.14850        1.2426442E-17
   59.31000        1.2447640E-17
   59.47150        1.2472147E-17
   59.63300        1.2483621E-17
   59.79450        1.2475185E-17
   59.95600        1.2454594E-17
   60.11750        1.2438644E-17
   60.27900        1.2440863E-17
   60.44050        1.2461524E-17
   60.60200        1.2487403E-17
   60.76350        1.2501507E-17
   60.92500        1.2495600E-17
   61.08650        1.2476306E-17
   61.24800        1.2460225E-17
   61.40950        1.2461717E-17
   61.57100        1.2482336E-17
   61.73250        1.2509748E-17
   61.89400        1.2526918E-17
   62.05550        1.2524800E-17
   62.21700        1.2509090E-17
   62.37850        1.2496056E-17
   62.54000        1.2500453E-17
   62.70150        1.2524476E-17
   62.86300        1.2555909E-17
   63.02450        1.2576862E-17
   63.18600        1.2576706E-17
   63.34750        1.2559713E-17
   63.50900        1.2541794E-17
   63.67050        1.2538712E-17
   63.83200        1.2554429E-17
   63.99350        1.2578183E-17
   64.15500        1.2592519E-17
   64.31650        1.2586407E-17
   64.47800        1.2563769E-17
   64.63950        1.2541025E-17
   64.80100        1.2535383E-17
   64.96250        1.2552383E-17
   65.12400        1.2581878E-17
   65.28550        1.2605448E-17
   65.44700        1.2609860E-17
   65.60850        1.2596698E-17
   65.77000        1.2581032E-17
   65.93150        1.2580070E-17
   66.09300        1.2600163E-17
   66.25450        1.2631827E-17
   66.41600        1.2656501E-17
   66.57750        1.2660098E-17
   66.73900        1.2643348E-17
   66.90050        1.2621313E-17
   67.06200        1.2612387E-17
   67.22350        1.2624878E-17
   67.38500        1.2651006E-17
   67.54650        1.2672744E-17
   67.70800        1.2675183E-17
   67.86950        1.2657591E-17
   68.03100        1.2634016E-17
   68.19250        1.2623018E-17
   68.35400        1.2634076E-17
   68.51550        1.2660670E-17
   68.67700        1.2685112E-17
   68.83850        1.2691598E-17
   69.00000        1.2677897E-17
   69.16150        1.2657079E-17
   69.32300        1.2647924E-17
   69.48450        1.2661033E-17
   69.64600        1.2690862E-17
   69.80750        1.2719616E-17
   69.96900        1.2730206E-17
   70.13050        1.2718756E-17
   70.29200        1.2697406E-17
   70.45350        1.2685319E-17
   70.61500        1.2694511E-17
   70.77650        1.2720936E-17
   70.93800        1.2747485E-17
   71.09950        1.2756693E-17
   71.26100        1.2743779E-17
   71.42250        1.2720328E-17
   71.58400        1.2705853E-17
   71.74550        1.2713453E-17
   71.90700        1.2740142E-17
   72.06850        1.2769008E-17
   72.23000        1.2781568E-17
   72.39150        1.2771255E-17
   72.55300        1.2748106E-17
   72.71450        1.2731261E-17
   72.87600        1.2734766E-17
   73.03750        1.2757157E-17
   73.19900        1.2782503E-17
   73.36050        1.2792173E-17
   73.52200        1.2778713E-17
   73.68350        1.2751583E-17
   73.84500        1.2730468E-17
   74.00650        1.2731031E-17
   74.16800        1.2753529E-17
   74.32950        1.2782671E-17
   74.49100        1.2798907E-17
   74.65250        1.2792846E-17
   74.81400        1.2772185E-17
   74.97550        1.2755951E-17
   75.13700        1.2760269E-17
   75.29850        1.2786182E-17
   75.46000        1.2818613E-17
   75.62150        1.2837319E-17
   75.78300        1.2831770E-17
   75.94450        1.2808951E-17
   76.10600        1.2788304E-17
   76.26750        1.2787479E-17
   76.42900        1.2809397E-17
   76.59050        1.2840144E-17
   76.75200        1.2859283E-17
   76.91350        1.2854976E-17
   77.07500        1.2832775E-17
   77.23650        1.2811575E-17
   77.39800        1.2809731E-17
   77.55950        1.2831542E-17
   77.72100        1.2864066E-17
   77.88250        1.2886592E-17
   78.04400        1.2885865E-17
   78.20550        1.2865853E-17
   78.36700        1.2844881E-17
   78.52850        1.2842156E-17
   78.69000        1.2863592E-17
   78.85150        1.2897370E-17
   79.01300        1.2922565E-17
   79.17450        1.2924506E-17
   79.33600        1.2905550E-17
   79.49750        1.2883293E-17
   79.65900        1.2877530E-17
   79.82050        1.2895590E-17
   79.98200        1.2926884E-17
   80.14350        1.2950768E-17
   80.30500        1.2951921E-17
   80.46650        1.2931843E-17
   80.62800        1.2907898E-17
   80.78950        1.2900547E-17
   80.95100        1.2918240E-17
   81.11250        1.2951155E-17
   81.27400        1.2978437E-17
   81.43550        1.2983570E-17
   81.59700        1.2966499E-17
   81.75850        1.2943544E-17
   81.92000        1.2935140E-17
   82.08150        1.2950494E-17
   82.24300        1.2980541E-17
   82.40450        1.3004500E-17
   82.56600        1.3005210E-17
   82.72750        1.2981955E-17
   82.88900        1.2951246E-17
   83.05050        1.2934938E-17
   83.21200        1.2944351E-17
   83.37350        1.2972085E-17
   83.53500        1.2997557E-17
   83.69650        1.3002239E-17
   83.85800        1.2983407E-17
   84.01950        1.2956220E-17
   84.18100        1.2942520E-17
   84.34250        1.2954571E-17
   84.50400        1.2985783E-17
   84.66550        1.3015340E-17
   84.82700        1.3023416E-17
   84.98850        1.3005767E-17
   85.15000        1.2976941E-17
   85.31150        1.2959648E-17
   85.47300        1.2968112E-17
   85.63450        1.2997652E-17
   85.79600        1.3028230E-17
   85.95750        1.3039336E-17
   86.11900        1.3025179E-17
   86.28050        1.2998932E-17
   86.44200        1.2982908E-17
   86.60350        1.2991988E-17
   86.76500        1.3022592E-17
   86.92650        1.3055328E-17
   87.08800        1.3069331E-17
   87.24950        1.3057677E-17
   87.41100        1.3032461E-17
   87.57250        1.3015801E-17
   87.73400        1.3023424E-17
   87.89550        1.3052972E-17
   88.05700        1.3085703E-17
   88.21850        1.3100307E-17
   88.38000        1.3088613E-17
   88.54150        1.3061591E-17
   88.70300        1.3041170E-17
   88.86450        1.3043941E-17
   89.02600        1.3068790E-17
   89.18750        1.3097690E-17
   89.34900        1.3109132E-17
   89.51050        1.3094311E-17
   89.67200        1.3063989E-17
   89.83350        1.3040853E-17
   89.99500        1.3042933E-17
   90.15650        1.3070360E-17
   90.31800        1.3105284E-17
   90.47950        1.3125081E-17
   90.64100        1.3119069E-17
   90.80250        1.3096355E-17
   90.96400        1.3078968E-17
   91.12550        1.3085325E-17
   91.28700        1.3116304E-17
   91.44850        1.3154291E-17
   91.61000        1.3175963E-17
   91.77150        1.3169391E-17
   91.93300        1.3142820E-17
   92.09450        1.3118653E-17
   92.25600        1.3117048E-17
   92.41750        1.3141198E-17
   92.57900        1.3175102E-17
   92.74050        1.3195463E-17
   92.90200        1.3188953E-17
   93.06350        1.3162113E-17
   93.22500        1.3136561E-17
   93.38650        1.3133041E-17
   93.54800        1.3156074E-17
   93.70950        1.3190579E-17
   93.87100        1.3212973E-17
   94.03250        1.3208582E-17
   94.19400        1.3182511E-17
   94.35550        1.3155897E-17
   94.51700        1.3150311E-17
   94.67850        1.3171807E-17
   94.84000        1.3206430E-17
   95.00150        1.3230576E-17
   95.16300        1.3228485E-17
   95.32450        1.3203909E-17
   95.48600        1.3177289E-17
   95.64750        1.3170552E-17
   95.80900        1.3190799E-17
   95.97050        1.3225008E-17
   96.13200        1.3249663E-17
   96.29350        1.3248197E-17
   96.45500        1.3223325E-17
   96.61650        1.3195101E-17
   96.77800        1.3186133E-17
   96.93950        1.3204874E-17
   97.10100        1.3239355E-17
   97.26250        1.3266021E-17
   97.42400        1.3267122E-17
   97.58550        1.3243836E-17
   97.74700        1.3215387E-17
   97.90850        1.3204810E-17
   98.07000        1.3221839E-17
   98.23150        1.3255594E-17
   98.39300        1.3282552E-17
   98.55450        1.3283948E-17
   98.71600        1.3259769E-17
   98.87750        1.3228934E-17
   99.03900        1.3215449E-17
   99.20050        1.3230726E-17
   99.36200        1.3265175E-17
   99.52350        1.3295287E-17
   99.68500        1.3301046E-17
   99.84650        1.3280747E-17
   100.0080        1.3252243E-17
   100.1695        1.3239642E-17
   100.3310        1.3255287E-17
   100.4925        1.3290419E-17
   100.6540        1.3321476E-17
   100.8155        1.3327421E-17
   100.9770        1.3305279E-17
   101.1385        1.3272391E-17
   101.3000        1.3253669E-17
   101.4615        1.3263296E-17
   101.6230        1.3294360E-17
   101.7845        1.3324095E-17
   101.9460        1.3330849E-17
   102.1075        1.3310242E-17
   102.2690        1.3278573E-17
   102.4305        1.3260878E-17
   102.5920        1.3272459E-17
   102.7535        1.3307501E-17
   102.9150        1.3343237E-17
   103.0765        1.3356622E-17
   103.2380        1.3341239E-17
   103.3995        1.3311963E-17
   103.5610        1.3293888E-17
   103.7225        1.3303654E-17
   103.8840        1.3337009E-17
   104.0455        1.3371808E-17
   104.2070        1.3384346E-17
   104.3685        1.3366888E-17
   104.5300        1.3333448E-17
   104.6915        1.3309463E-17
   104.8530        1.3313021E-17
   105.0145        1.3341553E-17
   105.1760        1.3373850E-17
   105.3375        1.3385942E-17
   105.4990        1.3369058E-17
   105.6605        1.3336298E-17
   105.8220        1.3313079E-17
   105.9835        1.3318401E-17
   106.1450        1.3350816E-17
   106.3065        1.3389515E-17
   106.4680        1.3409716E-17
   106.6295        1.3400955E-17
   106.7910        1.3374721E-17
   106.9525        1.3355771E-17
   107.1140        1.3363554E-17
   107.2755        1.3397514E-17
   107.4370        1.3437217E-17
   107.5985        1.3457269E-17
   107.7600        1.3446052E-17
   107.9215        1.3414381E-17
   108.0830        1.3387602E-17
   108.2445        1.3386936E-17
   108.4060        1.3413829E-17
   108.5675        1.3448944E-17
   108.7290        1.3466603E-17
   108.8905        1.3454004E-17
   109.0520        1.3420956E-17
   109.2135        1.3392845E-17
   109.3750        1.3391950E-17
   109.5365        1.3420926E-17
   109.6980        1.3460718E-17
   109.8595        1.3484509E-17
   110.0210        1.3477441E-17
   110.1825        1.3447536E-17
   110.3440        1.3419692E-17
   110.5055        1.3417217E-17
   110.6670        1.3444519E-17
   110.8285        1.3483779E-17
   110.9900        1.3508060E-17
   111.1515        1.3501196E-17
   111.3130        1.3469753E-17
   111.4745        1.3438213E-17
   111.6360        1.3430934E-17
   111.7975        1.3454180E-17
   111.9590        1.3491540E-17
   112.1205        1.3516108E-17
   112.2820        1.3510405E-17
   112.4435        1.3479298E-17
   112.6050        1.3446386E-17
   112.7665        1.3436497E-17
   112.9280        1.3457280E-17
   113.0895        1.3493521E-17
   113.2510        1.3518414E-17
   113.4125        1.3513430E-17
   113.5740        1.3482057E-17
   113.7355        1.3447214E-17
   113.8970        1.3434231E-17
   114.0585        1.3452074E-17
   114.2200        1.3486740E-17
   114.3815        1.3511742E-17
   114.5430        1.3507907E-17
   114.7045        1.3477778E-17
   114.8660        1.3443893E-17
   115.0275        1.3432182E-17
   115.1890        1.3452763E-17
   115.3505        1.3492398E-17
   115.5120        1.3524243E-17
   115.6735        1.3527697E-17
   115.8350        1.3503607E-17
   115.9965        1.3473583E-17
   116.1580        1.3463859E-17
   116.3195        1.3485680E-17
   116.4810        1.3526741E-17
   116.6425        1.3560067E-17
   116.8040        1.3563837E-17
   116.9655        1.3537535E-17
   117.1270        1.3502420E-17
   117.2885        1.3485934E-17
   117.4500        1.3501507E-17
   117.6115        1.3538702E-17
   117.7730        1.3571016E-17
   117.9345        1.3575586E-17
   118.0960        1.3550269E-17
   118.2575        1.3515403E-17
   118.4190        1.3498929E-17
   118.5805        1.3515773E-17
   118.7420        1.3556742E-17