  -27.90000        8.8835351E-18
  -27.73850        8.9095144E-18
  -27.57700        8.9475200E-18
  -27.41550        8.9790522E-18
  -27.25400        8.9926469E-18
  -27.09250        8.9907278E-18
  -26.93100        8.9873496E-18
  -26.76950        8.9983610E-18
  -26.60800        9.0304846E-18
  -26.44650        9.0764775E-18
  -26.28500        9.1195463E-18
  -26.12350        9.1441152E-18
  -25.96200        9.1459177E-18
  -25.80050        9.1347863E-18
  -25.63900        9.1283376E-18
  -25.47750        9.1406328E-18
  -25.31600        9.1732328E-18
  -25.15450        9.2144090E-18
  -24.99300        9.2469917E-18
  -24.83150        9.2596616E-18
  -24.67000        9.2543081E-18
  -24.50850        9.2446599E-18
  -24.34700        9.2471596E-18
  -24.18550        9.2701056E-18
  -24.02400        9.3081923E-18
  -23.86250        9.3460209E-18
  -23.70100        9.3682390E-18
  -23.53950        9.3696394E-18
  -23.37800        9.3585825E-18
  -23.21650        9.3514985E-18
  -23.05500        9.3620939E-18
  -22.89350        9.3923315E-18
  -22.73200        9.4311287E-18
  -22.57050        9.4616169E-18
  -22.40900        9.4721924E-18
  -22.24750        9.4641117E-18
  -22.08600        9.4506295E-18
  -21.92450        9.4482671E-18
  -21.76300        9.4659547E-18
  -21.60150        9.4992115E-18
  -21.44000        9.5331920E-18
  -21.27850        9.5525903E-18
  -21.11700        9.5518690E-18
  -20.95550        9.5390543E-18
  -20.79400        9.5305583E-18
  -20.63250        9.5403968E-18
  -20.47100        9.5708867E-18
  -20.30950        9.6109387E-18
  -20.14800        9.6431012E-18
  -19.98650        9.6547818E-18
  -19.82500        9.6463313E-18
  -19.66350        9.6307067E-18
  -19.50200        9.6249470E-18
  -19.34050        9.6390281E-18
  -19.17900        9.6693956E-18
  -19.01750        9.7014166E-18
  -18.85600        9.7191538E-18
  -18.69450        9.7160469E-18
  -18.53300        9.6994835E-18
  -18.37150        9.6862072E-18
  -18.21000        9.6915086E-18
  -18.04850        9.7192390E-18
  -17.88700        9.7591596E-18
  -17.72550        9.7933900E-18
  -17.56400        9.8077763E-18
  -17.40250        9.8008081E-18
  -17.24100        9.7843166E-18
  -17.07950        9.7755510E-18
  -16.91800        9.7858486E-18
  -16.75650        9.8133002E-18
  -16.59500        9.8441640E-18
  -16.43350        9.8620857E-18
  -16.27200        9.8590557E-18
  -16.11050        9.8409562E-18
  -15.94900        9.8240395E-18
  -15.78750        9.8246243E-18
  -15.62600        9.8486589E-18
  -15.46450        9.8879450E-18
  -15.30300        9.9254336E-18
  -15.14150        9.9461512E-18
  -14.98000        9.9466483E-18
  -14.81850        9.9368504E-18
  -14.65700        9.9331612E-18
  -14.49550        9.9473928E-18
  -14.33400        9.9787868E-18
  -14.17250        1.0014378E-17
  -14.01100        1.0037437E-17
  -13.84950        1.0038458E-17
  -13.68800        1.0021461E-17
  -13.52650        1.0001493E-17
  -13.36500        9.9949425E-18
  -13.20350        1.0009046E-17
  -13.04200        1.0037404E-17
  -12.88050        1.0064434E-17
  -12.71900        1.0075781E-17
  -12.55750        1.0067853E-17
  -12.39600        1.0050236E-17
  -12.23450        1.0039423E-17
  -12.07300        1.0047994E-17
  -11.91150        1.0076347E-17
  -11.75000        1.0112434E-17
  -11.58850        1.0139642E-17
  -11.42700        1.0147681E-17
  -11.26550        1.0139281E-17
  -11.10400        1.0128294E-17
  -10.94250        1.0130423E-17
  -10.78100        1.0152660E-17
  -10.61950        1.0188398E-17
  -10.45800        1.0221482E-17
  -10.29650        1.0236595E-17
  -10.13500        1.0229193E-17
  -9.973500        1.0208482E-17
  -9.812000        1.0191439E-17
  -9.650500        1.0191825E-17
  -9.489000        1.0211343E-17
  -9.327500        1.0238784E-17
  -9.166000        1.0257711E-17
  -9.004500        1.0257632E-17
  -8.843000        1.0241285E-17
  -8.681500        1.0223196E-17
  -8.520000        1.0220354E-17
  -8.358500        1.0241091E-17
  -8.197000        1.0279435E-17
  -8.035500        1.0318721E-17
  -7.874000        1.0342152E-17
  -7.712500        1.0343473E-17
  -7.551000        1.0330777E-17
  -7.389500        1.0320989E-17
  -7.228000        1.0328596E-17
  -7.066500        1.0356053E-17
  -6.905000        1.0392145E-17
  -6.743500        1.0419403E-17
  -6.582000        1.0425693E-17
  -6.420500        1.0412385E-17
  -6.259000        1.0393679E-17
  -6.097500        1.0387501E-17
  -5.936000        1.0403904E-17
  -5.774500        1.0438535E-17
  -5.613000        1.0475443E-17
  -5.451500        1.0497381E-17
  -5.290000        1.0496891E-17
  -5.128500        1.0480942E-17
  -4.967000        1.0466143E-17
  -4.805500        1.0467722E-17
  -4.644000        1.0489491E-17
  -4.482500        1.0521411E-17
  -4.321000        1.0546299E-17
  -4.159500        1.0551232E-17
  -3.998000        1.0536167E-17
  -3.836500        1.0514081E-17
  -3.675000        1.0502591E-17
  -3.513500        1.0512530E-17
  -3.352000        1.0540988E-17
  -3.190500        1.0573328E-17
  -3.029000        1.0592818E-17
  -2.867500        1.0591518E-17
  -2.706000        1.0575306E-17
  -2.544500        1.0559802E-17
  -2.383000        1.0559937E-17
  -2.221500        1.0580080E-17
  -2.060000        1.0611188E-17
  -1.898500        1.0636848E-17
  -1.737000        1.0644149E-17
  -1.575500        1.0632235E-17
  -1.414000        1.0612893E-17
  -1.252500        1.0602780E-17
  -1.091000        1.0612463E-17
 -0.9295000        1.0639468E-17
 -0.7680000        1.0669937E-17
 -0.6065000        1.0687803E-17
 -0.4450000        1.0685395E-17
 -0.2835000        1.0668498E-17
 -0.1220000        1.0652536E-17
  3.9500002E-02    1.0652430E-17
  0.2010000        1.0672836E-17
  0.3625000        1.0705199E-17
  0.5240000        1.0733532E-17
  0.6855000        1.0745044E-17
  0.8470000        1.0738610E-17
   1.008500        1.0725477E-17
   1.170000        1.0721763E-17
   1.331500        1.0737702E-17
   1.493000        1.0770703E-17
   1.654500        1.0806790E-17
   1.816000        1.0829476E-17
   1.977500        1.0830310E-17
   2.139000        1.0814228E-17
   2.300500        1.0796247E-17
   2.462000        1.0791690E-17
   2.623500        1.0806307E-17
   2.785000        1.0832751E-17
   2.946500        1.0855654E-17
   3.108000        1.0861987E-17
   3.269500        1.0849881E-17
   3.431000        1.0830143E-17
   3.592500        1.0819445E-17
   3.754000        1.0829617E-17
   3.915500        1.0859989E-17
   4.077000        1.0897766E-17
   4.238500        1.0926162E-17
   4.400000        1.0935001E-17
   4.561500        1.0926960E-17
   4.723000        1.0915457E-17
   4.884500        1.0915657E-17
   5.046000        1.0934475E-17
   5.207500        1.0966053E-17
   5.369000        1.0995610E-17
   5.530500        1.1009082E-17
   5.692000        1.1002288E-17
   5.853500        1.0983676E-17
   6.015000        1.0968887E-17
   6.176500        1.0970694E-17
   6.338000        1.0990841E-17
   6.499500        1.1019029E-17
   6.661000        1.1039667E-17
   6.822500        1.1041993E-17
   6.984000        1.1026969E-17
   7.145500        1.1006556E-17
   7.307000        1.0995886E-17
   7.468500        1.1003493E-17
   7.630000        1.1025945E-17
   7.791500        1.1050320E-17
   7.953000        1.1062825E-17
   8.114500        1.1057905E-17
   8.276000        1.1041883E-17
   8.437500        1.1028812E-17
   8.599000        1.1031252E-17
   8.760500        1.1052022E-17
   8.922000        1.1082303E-17
   9.083500        1.1107308E-17
   9.245000        1.1115836E-17
   9.406500        1.1107473E-17
   9.568000        1.1092797E-17
   9.729500        1.1086435E-17
   9.891000        1.1097520E-17
   10.05250        1.1123745E-17
   10.21400        1.1152904E-17
   10.37550        1.1170933E-17
   10.53700        1.1171178E-17
   10.69850        1.1158857E-17
   10.86000        1.1147715E-17
   11.02150        1.1151028E-17
   11.18300        1.1172781E-17
   11.34450        1.1204826E-17
   11.50600        1.1231946E-17
   11.66750        1.1241632E-17
   11.82900        1.1232224E-17
   11.99050        1.1214092E-17
   12.15200        1.1202979E-17
   12.31350        1.1209808E-17
   12.47500        1.1233562E-17
   12.63650        1.1261961E-17
   12.79800        1.1279551E-17
   12.95950        1.1277949E-17
   13.12100        1.1261545E-17
   13.28250        1.1244846E-17
   13.44400        1.1243099E-17
   13.60550        1.1262269E-17
   13.76700        1.1294917E-17
   13.92850        1.1324770E-17
   14.09000        1.1337092E-17
   14.25150        1.1328176E-17
   14.41300        1.1307780E-17
   14.57450        1.1292843E-17
   14.73600        1.1296544E-17
   14.89750        1.1319773E-17
   15.05900        1.1350591E-17
   15.22050        1.1372092E-17
   15.38200        1.1373581E-17
   15.54350        1.1357761E-17
   15.70500        1.1339175E-17
   15.86650        1.1334823E-17
   16.02800        1.1353027E-17
   16.18950        1.1387874E-17
   16.35100        1.1422914E-17
   16.51250        1.1441762E-17
   16.67400        1.1438709E-17
   16.83550        1.1422381E-17
   16.99700        1.1410014E-17
   17.15850        1.1416080E-17
   17.32000        1.1442691E-17
   17.48150        1.1478120E-17
   17.64300        1.1504434E-17
   17.80450        1.1509246E-17
   17.96600        1.1493875E-17
   18.12750        1.1472491E-17
   18.28900        1.1462808E-17
   18.45050        1.1474389E-17
   18.61200        1.1502306E-17
   18.77350        1.1530358E-17
   18.93500        1.1541802E-17
   19.09650        1.1530545E-17
   19.25800        1.1505370E-17
   19.41950        1.1484336E-17
   19.58100        1.1482982E-17
   19.74250        1.1504141E-17
   19.90400        1.1536114E-17
   20.06550        1.1560490E-17
   20.22700        1.1564428E-17
   20.38850        1.1549248E-17
   20.55000        1.1529583E-17
   20.71150        1.1523609E-17
   20.87300        1.1540790E-17
   21.03450        1.1575333E-17
   21.19600        1.1609733E-17
   21.35750        1.1626155E-17
   21.51900        1.1618153E-17
   21.68050        1.1594963E-17
   21.84200        1.1575484E-17
   22.00350        1.1575869E-17
   22.16500        1.1598915E-17
   22.32650        1.1632272E-17
   22.48800        1.1656690E-17
   22.64950        1.1658907E-17
   22.81100        1.1640632E-17
   22.97250        1.1617620E-17
   23.13400        1.1609357E-17
   23.29550        1.1626136E-17
   23.45700        1.1662076E-17
   23.61850        1.1698789E-17
   23.78000        1.1717352E-17
   23.94150        1.1710709E-17
   24.10300        1.1688324E-17
   24.26450        1.1669938E-17
   24.42600        1.1672530E-17
   24.58750        1.1699073E-17
   24.74900        1.1736503E-17
   24.91050        1.1764295E-17
   25.07200        1.1768030E-17
   25.23350        1.1748968E-17
   25.39500        1.1723313E-17
   25.55650        1.1711582E-17
   25.71800        1.1725085E-17
   25.87950        1.1758430E-17
   26.04100        1.1793030E-17
   26.20250        1.1809354E-17
   26.36400        1.1799850E-17
   26.52550        1.1773989E-17
   26.68700        1.1752054E-17
   26.84850        1.1751756E-17
   27.01000        1.1776548E-17
   27.17150        1.1813387E-17
   27.33300        1.1841443E-17
   27.49450        1.1845937E-17
   27.65600        1.1827928E-17
   27.81750        1.1803558E-17
   27.97900        1.1793297E-17
   28.14050        1.1808360E-17
   28.30200        1.1843302E-17
   28.46350        1.1879648E-17
   28.62500        1.1898126E-17
   28.78650        1.1891373E-17
   28.94800        1.1868720E-17
   29.10950        1.1849951E-17
   29.27100        1.1852180E-17
   29.43250        1.1878549E-17
   29.59400        1.1916178E-17
   29.75550        1.1944717E-17
   29.91700        1.1949808E-17
   30.07850        1.1932547E-17
   30.24000        1.1908660E-17
   30.40150        1.1897933E-17
   30.56300        1.1910943E-17
   30.72450        1.1941946E-17
   30.88600        1.1972706E-17
   31.04750        1.1984701E-17
   31.20900        1.1971531E-17
   31.37050        1.1943264E-17
   31.53200        1.1919810E-17
   31.69350        1.1917802E-17
   31.85500        1.1939705E-17
   32.01650        1.1972399E-17
   32.17800        1.1996087E-17
   32.33950        1.1997582E-17
   32.50100        1.1979090E-17
   32.66250        1.1956693E-17
   32.82400        1.1949590E-17
   32.98550        1.1967240E-17
   33.14700        1.2002962E-17
   33.30850        1.2038213E-17
   33.47000        1.2054729E-17
   33.63150        1.2046521E-17
   33.79300        1.2023780E-17
   33.95450        1.2006086E-17
   34.11600        1.2009413E-17
   34.27750        1.2035557E-17
   34.43900        1.2071033E-17
   34.60050        1.2096159E-17
   34.76200        1.2098252E-17
   34.92350        1.2080113E-17
   35.08500        1.2058180E-17
   35.24650        1.2051628E-17
   35.40800        1.2069697E-17
   35.56950        1.2105658E-17
   35.73100        1.2141318E-17
   35.89250        1.2159001E-17
   36.05400        1.2153027E-17
   36.21550        1.2133172E-17
   36.37700        1.2117965E-17
   36.53850        1.2122372E-17
   36.70000        1.2147983E-17
   36.86150        1.2182070E-17
   37.02300        1.2205998E-17
   37.18450        1.2207406E-17
   37.34600        1.2188194E-17
   37.50750        1.2163146E-17
   37.66900        1.2150157E-17
   37.83050        1.2158549E-17
   37.99200        1.2183121E-17
   38.15350        1.2207816E-17
   38.31500        1.2216512E-17
   38.47650        1.2203750E-17
   38.63800        1.2178334E-17
   38.79950        1.2157485E-17
   38.96100        1.2155529E-17
   39.12250        1.2174606E-17
   39.28400        1.2203551E-17
   39.44550        1.2225509E-17
   39.60700        1.2229140E-17
   39.76850        1.2215926E-17
   39.93000        1.2198855E-17
   40.09150        1.2193546E-17
   40.25300        1.2207803E-17
   40.41450        1.2236523E-17
   40.57600        1.2265155E-17
   40.73750        1.2279294E-17
   40.89900        1.2274034E-17
   41.06050        1.2257008E-17
   41.22200        1.2243238E-17
   41.38350        1.2245275E-17
   41.54500        1.2265085E-17
   41.70650        1.2292954E-17
   41.86800        1.2314024E-17
   42.02950        1.2318118E-17
   42.19100        1.2306412E-17
   42.35250        1.2290575E-17
   42.51400        1.2285002E-17
   42.67550        1.2297268E-17
   42.83700        1.2323113E-17
   42.99850        1.2349249E-17
   43.16000        1.2362110E-17
   43.32150        1.2356752E-17
   43.48300        1.2340047E-17
   43.64450        1.2326124E-17
   43.80600        1.2327142E-17
   43.96750        1.2345477E-17
   44.12900        1.2372390E-17
   44.29050        1.2393879E-17
   44.45200        1.2399810E-17
   44.61350        1.2390396E-17
   44.77500        1.2375912E-17
   44.93650        1.2369947E-17
   45.09800        1.2380583E-17
   45.25950        1.2405147E-17
   45.42100        1.2431884E-17
   45.58250        1.2447459E-17
   45.74400        1.2445516E-17
   45.90550        1.2430773E-17
   46.06700        1.2415983E-17
   46.22850        1.2413717E-17
   46.39000        1.2428212E-17
   46.55150        1.2452649E-17
   46.71300        1.2473662E-17
   46.87450        1.2480151E-17
   47.03600        1.2470596E-17
   47.19750        1.2454020E-17
   47.35900        1.2443982E-17
   47.52050        1.2449658E-17
   47.68200        1.2469906E-17
   47.84350        1.2494179E-17
   48.00500        1.2509538E-17
   48.16650        1.2509044E-17
   48.32800        1.2496122E-17
   48.48950        1.2482155E-17
   48.65100        1.2479039E-17
   48.81250        1.2491538E-17
   48.97400        1.2514306E-17
   49.13550        1.2535418E-17
   49.29700        1.2544059E-17
   49.45850        1.2537449E-17
   49.62000        1.2522562E-17
   49.78150        1.2511554E-17
   49.94300        1.2513823E-17
   50.10450        1.2529818E-17
   50.26600        1.2550696E-17
   50.42750        1.2564136E-17
   50.58900        1.2562548E-17
   50.75050        1.2548237E-17
   50.91200        1.2532016E-17
   51.07350        1.2526161E-17
   51.23500        1.2536371E-17
   51.39650        1.2558106E-17
   51.55800        1.2579659E-17
   51.71950        1.2589887E-17
   51.88100        1.2585459E-17
   52.04250        1.2572909E-17
   52.20400        1.2564218E-17
   52.36550        1.2568861E-17
   52.52700        1.2587522E-17
   52.68850        1.2611555E-17
   52.85000        1.2628529E-17
   53.01150        1.2630265E-17
   53.17300        1.2618189E-17
   53.33450        1.2602526E-17
   53.49600        1.2595796E-17
   53.65750        1.2604734E-17
   53.81900        1.2625882E-17
   53.98050        1.2647818E-17
   54.14200        1.2658679E-17
   54.30350        1.2654073E-17
   54.46500        1.2640096E-17
   54.62650        1.2629368E-17
   54.78800        1.2632696E-17
   54.94950        1.2651894E-17
   55.11100        1.2678551E-17
   55.27250        1.2699533E-17
   55.43400        1.2705555E-17
   55.59550        1.2697194E-17
   55.75700        1.2684445E-17
   55.91850        1.2680158E-17
   56.08000        1.2691700E-17
   56.24150        1.2716231E-17
   56.40300        1.2742588E-17
   56.56450        1.2758476E-17
   56.72600        1.2758288E-17
   56.88750        1.2746582E-17
   57.04900        1.2735010E-17
   57.21050        1.2734680E-17
   57.37200        1.2748812E-17
   57.53350        1.2770498E-17
   57.69500        1.2787083E-17
   57.85650        1.2788451E-17
   58.01800        1.2773810E-17
   58.17950        1.2752457E-17
   58.34100        1.2737920E-17
   58.50250        1.2739272E-17
   58.66400        1.2755331E-17
   58.82550        1.2775585E-17
   58.98700        1.2787263E-17
   59.14850        1.2783838E-17
   59.31000        1.2769353E-17
   59.47150        1.2755657E-17
   59.63300        1.2754424E-17
   59.79450        1.2769296E-17
   59.95600        1.2793365E-17
   60.11750        1.2813666E-17
   60.27900        1.2819667E-17
   60.44050        1.2810143E-17
   60.60200        1.2793961E-17
   60.76350        1.2784267E-17
   60.92500        1.2789877E-17
   61.08650        1.2809505E-17
   61.24800        1.2832620E-17
   61.40950        1.2846410E-17
   61.57100        1.2844286E-17
   61.73250        1.2830287E-17
   61.89400        1.2816438E-17
   62.05550        1.2814759E-17
   62.21700        1.2829212E-17
   62.37850        1.2852959E-17
   62.54000        1.2872800E-17
   62.70150        1.2877937E-17
   62.86300        1.2867259E-17
   63.02450        1.2850271E-17
   63.18600        1.2840947E-17
   63.34750        1.2848542E-17
   63.50900        1.2871449E-17
   63.67050        1.2898208E-17
   63.83200        1.2915020E-17
   63.99350        1.2914794E-17
   64.15500        1.2901775E-17
   64.31650        1.2888687E-17
   64.47800        1.2888252E-17
   64.63950        1.2904652E-17
   64.80100        1.2930563E-17
   64.96250        1.2951825E-17
   65.12400        1.2956763E-17
   65.28550        1.2944040E-17
   65.44700        1.2923815E-17
   65.60850        1.2911324E-17
   65.77000        1.2917016E-17
   65.93150        1.2939714E-17
   66.09300        1.2967319E-17
   66.25450        1.2984692E-17
   66.41600        1.2983569E-17
   66.57750        1.2967978E-17
   66.73900        1.2951489E-17
   66.90050        1.2948093E-17
   67.06200        1.2962774E-17
   67.22350        1.2988076E-17
   67.38500        1.3009009E-17
   67.54650        1.3012989E-17
   67.70800        1.2998236E-17
   67.86950        1.2975055E-17
   68.03100        1.2959181E-17
   68.19250        1.2961587E-17
   68.35400        1.2981459E-17
   68.51550        1.3006915E-17
   68.67700        1.3022946E-17
   68.83850        1.3021278E-17
   69.00000        1.3005662E-17
   69.16150        1.2989172E-17
   69.32300        1.2985406E-17
   69.48450        1.2999426E-17
   69.64600        1.3024410E-17
   69.80750        1.3046168E-17
   69.96900        1.3052549E-17
   70.13050        1.3041542E-17
   70.29200        1.3022718E-17
   70.45350        1.3011020E-17
   70.61500        1.3016980E-17
   70.77650        1.3039861E-17
   70.93800        1.3068247E-17
   71.09950        1.3087694E-17
   71.26100        1.3090318E-17
   71.42250        1.3079935E-17
   71.58400        1.3069326E-17
   71.74550        1.3071450E-17
   71.90700        1.3090474E-17
   72.06850        1.3118692E-17
   72.23000        1.3141461E-17
   72.39150        1.3146915E-17
   72.55300        1.3133941E-17
   72.71450        1.3113014E-17
   72.87600        1.3099315E-17
   73.03750        1.3102691E-17
   73.19900        1.3121132E-17
   73.36050        1.3142123E-17
   73.52200        1.3150994E-17
   73.68350        1.3140760E-17
   73.84500        1.3116921E-17
   74.00650        1.3093957E-17
   74.16800        1.3085796E-17
   74.32950        1.3096560E-17
   74.49100        1.3117783E-17
   74.65250        1.3134021E-17
   74.81400        1.3133218E-17
   74.97550        1.3114972E-17
   75.13700        1.3091174E-17
   75.29850        1.3078448E-17
   75.46000        1.3087260E-17
   75.62150        1.3114866E-17
   75.78300        1.3146839E-17
   75.94450        1.3166312E-17
   76.10600        1.3164886E-17
   76.26750        1.3147980E-17
   76.42900        1.3131075E-17
   76.59050        1.3129303E-17
   76.75200        1.3147290E-17
   76.91350        1.3175975E-17
   77.07500        1.3198549E-17
   77.23650        1.3201665E-17
   77.39800        1.3184514E-17
   77.55950        1.3159754E-17
   77.72100        1.3145558E-17
   77.88250        1.3153948E-17
   78.04400        1.3183047E-17
   78.20550        1.3218357E-17
   78.36700        1.3242243E-17
   78.52850        1.3245445E-17
   78.69000        1.3233009E-17
   78.85150        1.3220714E-17
   79.01300        1.3224282E-17
   79.17450        1.3248542E-17
   79.33600        1.3283837E-17
   79.49750        1.3312224E-17
   79.65900        1.3319419E-17
   79.82050        1.3304475E-17
   79.98200        1.3280600E-17
   80.14350        1.3266475E-17
   80.30500        1.3273836E-17
   80.46650        1.3299680E-17
   80.62800        1.3328384E-17
   80.78950        1.3342301E-17
   80.95100        1.3333731E-17
   81.11250        1.3310113E-17
   81.27400        1.3288916E-17
   81.43550        1.3285680E-17
   81.59700        1.3303338E-17
   81.75850        1.3330100E-17
   81.92000        1.3347411E-17
   82.08150        1.3342622E-17
   82.24300        1.3317813E-17
   82.40450        1.3288714E-17
   82.56600        1.3274319E-17
   82.72750        1.3284114E-17
   82.88900        1.3311554E-17
   83.05050        1.3338321E-17
   83.21200        1.3346645E-17
   83.37350        1.3331372E-17
   83.53500        1.3303571E-17
   83.69650        1.3283079E-17
   83.85800        1.3284952E-17
   84.01950        1.3309035E-17
   84.18100        1.3339815E-17
   84.34250        1.3356849E-17
   84.50400        1.3348745E-17
   84.66550        1.3321214E-17
   84.82700        1.3293542E-17
   84.98850        1.3285751E-17
   85.15000        1.3305032E-17
   85.31150        1.3340705E-17
   85.47300        1.3371215E-17
   85.63450        1.3378526E-17
   85.79600        1.3360207E-17
   85.95750        1.3331038E-17
   86.11900        1.3312993E-17
   86.28050        1.3320325E-17
   86.44200        1.3349848E-17
   86.60350        1.3383059E-17
   86.76500        1.3398729E-17
   86.92650        1.3387503E-17
   87.08800        1.3358554E-17
   87.24950        1.3333713E-17
   87.41100        1.3332937E-17
   87.57250        1.3360918E-17
   87.73400        1.3403879E-17
   87.89550        1.3438749E-17
   88.05700        1.3448515E-17
   88.21850        1.3433359E-17
   88.38000        1.3410055E-17
   88.54150        1.3400098E-17
   88.70300        1.3414706E-17
   88.86450        1.3446989E-17
   89.02600        1.3476651E-17
   89.18750        1.3483963E-17
   89.34900        1.3463437E-17
   89.51050        1.3427828E-17
   89.67200        1.3399763E-17
   89.83350        1.3396740E-17
   89.99500        1.3419719E-17
   90.15650        1.3452992E-17
   90.31800        1.3475264E-17
   90.47950        1.3474291E-17
   90.64100        1.3455035E-17
   90.80250        1.3435889E-17
   90.96400        1.3435702E-17
   91.12550        1.3460573E-17
   91.28700        1.3499469E-17
   91.44850        1.3531589E-17
   91.61000        1.3540393E-17
   91.77150        1.3524713E-17
   91.93300        1.3499401E-17
   92.09450        1.3485107E-17
   92.25600        1.3494176E-17
   92.41750        1.3522261E-17
   92.57900        1.3551372E-17
   92.74050        1.3562242E-17
   92.90200        1.3547578E-17
   93.06350        1.3517103E-17
   93.22500        1.3490968E-17
   93.38650        1.3486035E-17
   93.54800        1.3504446E-17
   93.70950        1.3532293E-17
   93.87100        1.3549305E-17
   94.03250        1.3542907E-17
   94.19400        1.3517024E-17
   94.35550        1.3489565E-17
   94.51700        1.3480353E-17
   94.67850        1.3497697E-17
   94.84000        1.3532766E-17
   95.00150        1.3565486E-17
   95.16300        1.3577921E-17
   95.32450        1.3566016E-17
   95.48600        1.3541889E-17
   95.64750        1.3525235E-17
   95.80900        1.3529809E-17
   95.97050        1.3554110E-17
   96.13200        1.3582550E-17
   96.29350        1.3596183E-17
   96.45500        1.3585695E-17
   96.61650        1.3557899E-17
   96.77800        1.3531388E-17
   96.93950        1.3524327E-17
   97.10100        1.3542596E-17
   97.26250        1.3576175E-17
   97.42400        1.3606073E-17
   97.58550        1.3617010E-17
   97.74700        1.3607300E-17
   97.90850        1.3589372E-17
   98.07000        1.3580797E-17
   98.23150        1.3592064E-17
   98.39300        1.3619440E-17
   98.55450        1.3647642E-17
   98.71600        1.3660321E-17
   98.87750        1.3651148E-17
   99.03900        1.3628012E-17
   99.20050        1.3607667E-17
   99.36200        1.3604573E-17
   99.52350        1.3621499E-17
   99.68500        1.3648096E-17
   99.84650        1.3668171E-17
   100.0080        1.3670602E-17
   100.1695        1.3656539E-17
   100.3310        1.3638178E-17
   100.4925        1.3630129E-17
   100.6540        1.3639319E-17
   100.8155        1.3660238E-17
   100.9770        1.3678665E-17
   101.1385        1.3681315E-17
   101.3000        1.3664896E-17
   101.4615        1.3638460E-17
   101.6230        1.3617475E-17
   101.7845        1.3613608E-17
   101.9460        1.3627101E-17
   102.1075        1.3646870E-17
   102.2690        1.3658245E-17
   102.4305        1.3653040E-17
   102.5920        1.3635153E-17
   102.7535        1.3617880E-17
   102.9150        1.3614825E-17
   103.0765        1.3630596E-17
   103.2380        1.3657616E-17
   103.3995        1.3681144E-17
   103.5610        1.3689111E-17
   103.7225        1.3680111E-17
   103.8840        1.3664201E-17
   104.0455        1.3656058E-17
   104.2070        1.3665108E-17
   104.3685        1.3689192E-17
   104.5300        1.3715930E-17
   104.6915        1.3730796E-17
   104.8530        1.3726583E-17
   105.0145        1.3708024E-17
   105.1760        1.3688640E-17
   105.3375        1.3681890E-17
   105.4990        1.3692475E-17
   105.6605        1.3713501E-17
   105.8220        1.3731340E-17
   105.9835        1.3734944E-17
   106.1450        1.3723456E-17
   106.3065        1.3707002E-17
   106.4680        1.3700133E-17
   106.6295        1.3712197E-17
   106.7910        1.3741054E-17
   106.9525        1.3774298E-17
   107.1140        1.3797188E-17
   107.2755        1.3802003E-17
   107.4370        1.3792627E-17
   107.5985        1.3781391E-17
   107.7600        1.3780420E-17
   107.9215        1.3793350E-17
   108.0830        1.3812951E-17
   108.2445        1.3826144E-17
   108.4060        1.3822996E-17
   108.5675        1.3803618E-17
   108.7290        1.3778392E-17
   108.8905        1.3761410E-17
   109.0520        1.3761480E-17
   109.2135        1.3776661E-17
   109.3750        1.3795894E-17
   109.5365        1.3806563E-17
   109.6980        1.3802933E-17
   109.8595        1.3789806E-17
   110.0210        1.3779031E-17
   110.1825        1.3781195E-17
   110.3440        1.3798155E-17
   110.5055        1.3821478E-17
   110.6670        1.3837940E-17
   110.8285        1.3838378E-17
   110.9900        1.3823906E-17
   111.1515        1.3805193E-17
   111.3130        1.3795276E-17
   111.4745        1.3800767E-17
   111.6360        1.3817456E-17
   111.7975        1.3833282E-17
   111.9590        1.3836665E-17
   112.1205        1.3824457E-17
   112.2820        1.3804150E-17
   112.4435        1.3788819E-17
   112.6050        1.3788311E-17
   112.7665        1.3802628E-17
   112.9280        1.3821966E-17
   113.0895        1.3833338E-17
   113.2510        1.3829304E-17
   113.4125        1.3812986E-17
   113.5740        1.3796022E-17
   113.7355        1.3790845E-17
   113.8970        1.3802385E-17
   114.0585        1.3824679E-17
   114.2200        1.3844707E-17
   114.3815        1.3850938E-17
   114.5430        1.3840964E-17
   114.7045        1.3823154E-17
   114.8660        1.3811113E-17
   115.0275        1.3814638E-17
   115.1890        1.3833162E-17
   115.3505        1.3856119E-17
   115.5120        1.3870068E-17
   115.6735        1.3867778E-17
   115.8350        1.3853170E-17
   115.9965        1.3838737E-17
   116.1580        1.3837165E-17
   116.3195        1.3852823E-17
   116.4810        1.3878832E-17
   116.6425        1.3901627E-17
   116.8040        1.3909869E-17
   116.9655        1.3901725E-17
   117.1270        1.3885727E-17
   117.2885        1.3874834E-17
   117.4500        1.3877772E-17
   117.6115        1.3893413E-17
   117.7730        1.3911844E-17
   117.9345        1.3921230E-17
   118.0960        1.3915856E-17
   118.2575        1.3900026E-17
   118.4190        1.3885292E-17
   118.5805        1.3882930E-17
   118.7420        1.3896611E-17