  -27.90000       -1.8936046E-18
  -27.73850       -1.8969065E-18
  -27.57700       -1.9017374E-18
  -27.41550       -1.9057466E-18
  -27.25400       -1.9074762E-18
  -27.09250       -1.9072343E-18
  -26.93100       -1.9068072E-18
  -26.76950       -1.9082114E-18
  -26.60800       -1.9123026E-18
  -26.44650       -1.9181555E-18
  -26.28500       -1.9236308E-18
  -26.12350       -1.9267506E-18
  -25.96200       -1.9269789E-18
  -25.80050       -1.9255727E-18
  -25.63900       -1.9247724E-18
  -25.47750       -1.9263570E-18
  -25.31600       -1.9305138E-18
  -25.15450       -1.9357515E-18
  -24.99300       -1.9398965E-18
  -24.83150       -1.9415213E-18
  -24.67000       -1.9408656E-18
  -24.50850       -1.9396628E-18
  -24.34700       -1.9399925E-18
  -24.18550       -1.9429102E-18
  -24.02400       -1.9477531E-18
  -23.86250       -1.9525735E-18
  -23.70100       -1.9554171E-18
  -23.53950       -1.9556070E-18
  -23.37800       -1.9541931E-18
  -23.21650       -1.9532698E-18
  -23.05500       -1.9545986E-18
  -22.89350       -1.9584446E-18
  -22.73200       -1.9633973E-18
  -22.57050       -1.9672915E-18
  -22.40900       -1.9686330E-18
  -22.24750       -1.9675790E-18
  -22.08600       -1.9658322E-18
  -21.92450       -1.9655087E-18
  -21.76300       -1.9677496E-18
  -21.60150       -1.9719789E-18
  -21.44000       -1.9763047E-18
  -21.27850       -1.9787868E-18
  -21.11700       -1.9787306E-18
  -20.95550       -1.9771519E-18
  -20.79400       -1.9761153E-18
  -20.63250       -1.9773804E-18
  -20.47100       -1.9812415E-18
  -20.30950       -1.9863150E-18
  -20.14800       -1.9904085E-18
  -19.98650       -1.9919202E-18
  -19.82500       -1.9908608E-18
  -19.66350       -1.9888431E-18
  -19.50200       -1.9880289E-18
  -19.34050       -1.9897302E-18
  -19.17900       -1.9935537E-18
  -19.01750       -1.9976633E-18
  -18.85600       -2.0000034E-18
  -18.69450       -1.9996800E-18
  -18.53300       -1.9975932E-18
  -18.37150       -1.9958849E-18
  -18.21000       -1.9965530E-18
  -18.04850       -2.0001310E-18
  -17.88700       -2.0053191E-18
  -17.72550       -2.0098090E-18
  -17.56400       -2.0117671E-18
  -17.40250       -2.0109960E-18
  -17.24100       -2.0090176E-18
  -17.07950       -2.0080407E-18
  -16.91800       -2.0095007E-18
  -16.75650       -2.0131316E-18
  -16.59500       -2.0171643E-18
  -16.43350       -2.0195125E-18
  -16.27200       -2.0191524E-18
  -16.11050       -2.0168196E-18
  -15.94900       -2.0145628E-18
  -15.78750       -2.0144586E-18
  -15.62600       -2.0173012E-18
  -15.46450       -2.0221079E-18
  -15.30300       -2.0267501E-18
  -15.14150       -2.0293065E-18
  -14.98000       -2.0292844E-18
  -14.81850       -2.0279131E-18
  -14.65700       -2.0273144E-18
  -14.49550       -2.0290724E-18
  -14.33400       -2.0331460E-18
  -14.17250       -2.0378639E-18
  -14.01100       -2.0410034E-18
  -13.84950       -2.0412613E-18
  -13.68800       -2.0391237E-18
  -13.52650       -2.0365609E-18
  -13.36500       -2.0357345E-18
  -13.20350       -2.0375919E-18
  -13.04200       -2.0412690E-18
  -12.88050       -2.0447024E-18
  -12.71900       -2.0460275E-18
  -12.55750       -2.0448291E-18
  -12.39600       -2.0424196E-18
  -12.23450       -2.0409825E-18
  -12.07300       -2.0421596E-18
  -11.91150       -2.0459955E-18
  -11.75000       -2.0509259E-18
  -11.58850       -2.0547998E-18
  -11.42700       -2.0562697E-18
  -11.26550       -2.0556667E-18
  -11.10400       -2.0547789E-18
  -10.94250       -2.0556662E-18
  -10.78100       -2.0592668E-18
  -10.61950       -2.0647111E-18
  -10.45800       -2.0698179E-18
  -10.29650       -2.0724768E-18
  -10.13500       -2.0720200E-18
  -9.973500       -2.0696671E-18
  -9.812000       -2.0677247E-18
  -9.650500       -2.0680429E-18
  -9.489000       -2.0707757E-18
  -9.327500       -2.0742805E-18
  -9.166000       -2.0762544E-18
  -9.004500       -2.0753325E-18
  -8.843000       -2.0720645E-18
  -8.681500       -2.0685916E-18
  -8.520000       -2.0672451E-18
  -8.358500       -2.0690111E-18
  -8.197000       -2.0728933E-18
  -8.035500       -2.0765842E-18
  -7.874000       -2.0779778E-18
  -7.712500       -2.0765255E-18
  -7.551000       -2.0735534E-18
  -7.389500       -2.0713630E-18
  -7.228000       -2.0717148E-18
  -7.066500       -2.0746889E-18
  -6.905000       -2.0786567E-18
  -6.743500       -2.0813730E-18
  -6.582000       -2.0814770E-18
  -6.420500       -2.0794322E-18
  -6.259000       -2.0772753E-18
  -6.097500       -2.0773270E-18
  -5.936000       -2.0806798E-18
  -5.774500       -2.0864547E-18
  -5.613000       -2.0923430E-18
  -5.451500       -2.0960990E-18
  -5.290000       -2.0970023E-18
  -5.128500       -2.0963031E-18
  -4.967000       -2.0963269E-18
  -4.805500       -2.0988496E-18
  -4.644000       -2.1038553E-18
  -4.482500       -2.1095310E-18
  -4.321000       -2.1134893E-18
  -4.159500       -2.1143648E-18
  -3.998000       -2.1127024E-18
  -3.836500       -2.1105466E-18
  -3.675000       -2.1100556E-18
  -3.513500       -2.1120957E-18
  -3.352000       -2.1157452E-18
  -3.190500       -2.1189877E-18
  -3.029000       -2.1200738E-18
  -2.867500       -2.1186436E-18
  -2.706000       -2.1158999E-18
  -2.544500       -2.1137941E-18
  -2.383000       -2.1137755E-18
  -2.221500       -2.1159044E-18
  -2.060000       -2.1188686E-18
  -1.898500       -2.1208714E-18
  -1.737000       -2.1208241E-18
  -1.575500       -2.1190703E-18
  -1.414000       -2.1171613E-18
  -1.252500       -2.1168267E-18
  -1.091000       -2.1188209E-18
 -0.9295000       -2.1224199E-18
 -0.7680000       -2.1259222E-18
 -0.6065000       -2.1277921E-18
 -0.4450000       -2.1276721E-18
 -0.2835000       -2.1265651E-18
 -0.1220000       -2.1260841E-18
  3.9500002E-02   -2.1273295E-18
  0.2010000       -2.1301841E-18
  0.3625000       -2.1334831E-18
  0.5240000       -2.1358792E-18
  0.6855000       -2.1367500E-18
  0.8470000       -2.1365409E-18
   1.008500       -2.1363784E-18
   1.170000       -2.1373034E-18
   1.331500       -2.1396276E-18
   1.493000       -2.1427835E-18
   1.654500       -2.1456840E-18
   1.816000       -2.1473350E-18
   1.977500       -2.1473677E-18
   2.139000       -2.1462076E-18
   2.300500       -2.1448150E-18
   2.462000       -2.1441282E-18
   2.623500       -2.1445216E-18
   2.785000       -2.1455884E-18
   2.946500       -2.1464142E-18
   3.108000       -2.1461929E-18
   3.269500       -2.1448204E-18
   3.431000       -2.1430490E-18
   3.592500       -2.1420739E-18
   3.754000       -2.1427903E-18
   3.915500       -2.1452220E-18
   4.077000       -2.1485036E-18
   4.238500       -2.1514101E-18
   4.400000       -2.1530761E-18
   4.561500       -2.1534452E-18
   4.723000       -2.1532289E-18
   4.884500       -2.1534404E-18
   5.046000       -2.1547974E-18
   5.207500       -2.1573116E-18
   5.369000       -2.1602558E-18
   5.530500       -2.1625398E-18
   5.692000       -2.1633137E-18
   5.853500       -2.1625096E-18
   6.015000       -2.1609841E-18
   6.176500       -2.1601092E-18
   6.338000       -2.1609688E-18
   6.499500       -2.1636261E-18
   6.661000       -2.1669628E-18
   6.822500       -2.1693091E-18
   6.984000       -2.1695345E-18
   7.145500       -2.1678687E-18
   7.307000       -2.1658510E-18
   7.468500       -2.1653616E-18
   7.630000       -2.1673762E-18
   7.791500       -2.1712929E-18
   7.953000       -2.1753109E-18
   8.114500       -2.1776109E-18
   8.276000       -2.1775497E-18
   8.437500       -2.1760795E-18
   8.599000       -2.1751190E-18
   8.760500       -2.1762930E-18
   8.922000       -2.1798500E-18
   9.083500       -2.1844651E-18
   9.245000       -2.1880526E-18
   9.406500       -2.1890930E-18
   9.568000       -2.1876313E-18
   9.729500       -2.1853163E-18
   9.891000       -2.1844014E-18
   10.05250       -2.1863124E-18
   10.21400       -2.1906824E-18
   10.37550       -2.1955264E-18
   10.53700       -2.1985172E-18
   10.69850       -2.1985745E-18
   10.86000       -2.1966728E-18
   11.02150       -2.1952472E-18
   11.18300       -2.1965239E-18
   11.34450       -2.2008943E-18
   11.50600       -2.2064950E-18
   11.66750       -2.2103627E-18
   11.82900       -2.2104175E-18
   11.99050       -2.2069381E-18
   12.15200       -2.2024621E-18
   12.31350       -2.2001309E-18
   12.47500       -2.2015761E-18
   12.63650       -2.2057861E-18
   12.79800       -2.2097712E-18
   12.95950       -2.2105986E-18
   13.12100       -2.2074282E-18
   13.28250       -2.2021690E-18
   13.44400       -2.1982850E-18
   13.60550       -2.1985220E-18
   13.76700       -2.2030448E-18
   13.92850       -2.2092257E-18
   14.09000       -2.2132772E-18
   14.25150       -2.2127127E-18
   14.41300       -2.2080528E-18
   14.57450       -2.2026085E-18
   14.73600       -2.2003972E-18
   14.89750       -2.2034869E-18
   15.05900       -2.2105207E-18
   15.22050       -2.2174688E-18
   15.38200       -2.2202280E-18
   15.54350       -2.2174055E-18
   15.70500       -2.2114002E-18
   15.86650       -2.2069373E-18
   16.02800       -2.2079144E-18
   16.18950       -2.2146530E-18
   16.35100       -2.2235090E-18
   16.51250       -2.2292249E-18
   16.67400       -2.2284959E-18
   16.83550       -2.2223024E-18
   16.99700       -2.2153220E-18
   17.15850       -2.2127762E-18
   17.32000       -2.2168560E-18
   17.48150       -2.2251781E-18
   17.64300       -2.2323708E-18
   17.80450       -2.2337194E-18
   17.96600       -2.2283952E-18
   18.12750       -2.2200754E-18
   18.28900       -2.2145219E-18
   18.45050       -2.2157245E-18
   18.61200       -2.2232073E-18
   18.77350       -2.2322964E-18
   18.93500       -2.2372152E-18
   19.09650       -2.2349880E-18
   19.25800       -2.2275612E-18
   19.41950       -2.2206691E-18
   19.58100       -2.2200727E-18
   19.74250       -2.2276131E-18
   19.90400       -2.2397648E-18
   20.06550       -2.2498252E-18
   20.22700       -2.2524122E-18
   20.38850       -2.2472332E-18
   20.55000       -2.2394399E-18
   20.71150       -2.2361475E-18
   20.87300       -2.2414361E-18
   21.03450       -2.2533184E-18
   21.19600       -2.2649156E-18
   21.35750       -2.2691303E-18
   21.51900       -2.2636104E-18
   21.68050       -2.2524988E-18
   21.84200       -2.2436755E-18
   22.00350       -2.2433759E-18
   22.16500       -2.2519132E-18
   22.32650       -2.2634739E-18
   22.48800       -2.2701176E-18
   22.64950       -2.2672185E-18
   22.81100       -2.2566463E-18
   22.97250       -2.2455408E-18
   23.13400       -2.2415333E-18
   23.29550       -2.2475988E-18
   23.45700       -2.2599830E-18
   23.61850       -2.2706251E-18
   23.78000       -2.2725241E-18
   23.94150       -2.2645052E-18
   24.10300       -2.2521436E-18
   24.26450       -2.2441036E-18
   24.42600       -2.2462396E-18
   24.58750       -2.2574650E-18
   24.74900       -2.2703215E-18
   24.91050       -2.2760290E-18
   25.07200       -2.2706259E-18
   25.23350       -2.2579001E-18
   25.39500       -2.2469199E-18
   25.55650       -2.2457689E-18
   25.71800       -2.2558433E-18
   25.87950       -2.2707967E-18
   26.04100       -2.2809313E-18
   26.20250       -2.2799710E-18
   26.36400       -2.2694298E-18
   26.52550       -2.2575149E-18
   26.68700       -2.2533730E-18
   26.84850       -2.2607462E-18
   27.01000       -2.2754117E-18
   27.17150       -2.2881065E-18
   27.33300       -2.2908471E-18
   27.49450       -2.2823346E-18
   27.65600       -2.2688177E-18
   27.81750       -2.2598806E-18
   27.97900       -2.2619961E-18
   28.14050       -2.2741470E-18
   28.30200       -2.2884533E-18
   28.46350       -2.2954477E-18
   28.62500       -2.2905117E-18
   28.78650       -2.2771443E-18
   28.94800       -2.2647436E-18
   29.10950       -2.2622689E-18
   29.27100       -2.2720300E-18
   29.43250       -2.2879419E-18
   29.59400       -2.2996041E-18
   29.75550       -2.2995073E-18
   29.91700       -2.2883313E-18
   30.07850       -2.2745403E-18
   30.24000       -2.2684818E-18
   30.40150       -2.2751415E-18
   30.56300       -2.2906875E-18
   30.72450       -2.3052202E-18
   30.88600       -2.3097219E-18
   31.04750       -2.3022866E-18
   31.20900       -2.2893001E-18
   31.37050       -2.2808784E-18
   31.53200       -2.2838353E-18
   31.69350       -2.2970725E-18
   31.85500       -2.3124630E-18
   32.01650       -2.3204751E-18
   32.17800       -2.3166196E-18
   32.33950       -2.3043645E-18
   32.50100       -2.2926624E-18
   32.66250       -2.2898312E-18
   32.82400       -2.2979135E-18
   32.98550       -2.3112882E-18
   33.14700       -2.3204743E-18
   33.30850       -2.3186187E-18
   33.47000       -2.3062654E-18
   33.63150       -2.2911079E-18
   33.79300       -2.2827755E-18
   33.95450       -2.2862042E-18
   34.11600       -2.2982086E-18
   34.27750       -2.3097251E-18
   34.43900       -2.3122070E-18
   34.60050       -2.3036951E-18
   34.76200       -2.2902600E-18
   34.92350       -2.2817754E-18
   35.08500       -2.2849930E-18
   35.24650       -2.2988243E-18
   35.40800       -2.3151394E-18
   35.56950       -2.3244427E-18
   35.73100       -2.3223660E-18
   35.89250       -2.3124465E-18
   36.05400       -2.3033870E-18
   36.21550       -2.3029043E-18
   36.37700       -2.3124705E-18
   36.53850       -2.3264672E-18
   36.70000       -2.3361342E-18
   36.86150       -2.3355155E-18
   37.02300       -2.3253819E-18
   37.18450       -2.3126156E-18
   37.34600       -2.3055583E-18
   37.50750       -2.3084909E-18
   37.66900       -2.3189101E-18
   37.83050       -2.3293623E-18
   37.99200       -2.3325734E-18
   38.15350       -2.3264058E-18
   38.31500       -2.3153040E-18
   38.47650       -2.3072330E-18
   38.63800       -2.3081700E-18
   38.79950       -2.3179441E-18
   38.96100       -2.3303473E-18
   39.12250       -2.3374811E-18
   39.28400       -2.3352705E-18
   39.44550       -2.3262244E-18
   39.60700       -2.3175005E-18
   39.76850       -2.3157358E-18
   39.93000       -2.3224049E-18
   40.09150       -2.3329870E-18
   40.25300       -2.3403642E-18
   40.41450       -2.3398954E-18
   40.57600       -2.3325248E-18
   40.73750       -2.3238758E-18
   40.89900       -2.3201899E-18
   41.06050       -2.3240700E-18
   41.22200       -2.3329349E-18
   41.38350       -2.3410299E-18
   41.54500       -2.3434244E-18
   41.70650       -2.3392269E-18
   41.86800       -2.3319977E-18
   42.02950       -2.3272542E-18
   42.19100       -2.3287936E-18
   42.35250       -2.3362240E-18
   42.51400       -2.3452614E-18
   42.67550       -2.3506027E-18
   42.83700       -2.3494899E-18
   42.99850       -2.3435797E-18
   43.16000       -2.3378060E-18
   43.32150       -2.3369629E-18
   43.48300       -2.3423637E-18
   43.64450       -2.3509526E-18
   43.80600       -2.3575036E-18
   43.96750       -2.3583283E-18
   44.12900       -2.3538198E-18
   44.29050       -2.3480210E-18
   44.45200       -2.3456247E-18
   44.61350       -2.3486398E-18
   44.77500       -2.3551362E-18
   44.93650       -2.3608268E-18
   45.09800       -2.3621569E-18
   45.25950       -2.3586224E-18
   45.42100       -2.3527883E-18
   45.58250       -2.3482764E-18
   45.74400       -2.3473086E-18
   45.90550       -2.3494684E-18
   46.06700       -2.3522872E-18
   46.22850       -2.3530474E-18
   46.39000       -2.3505615E-18
   46.55150       -2.3458637E-18
   46.71300       -2.3415057E-18
   46.87450       -2.3399451E-18
   47.03600       -2.3420325E-18
   47.19750       -2.3465302E-18
   47.35900       -2.3509805E-18
   47.52050       -2.3533675E-18
   47.68200       -2.3534633E-18
   47.84350       -2.3528950E-18
   48.00500       -2.3538655E-18
   48.16650       -2.3574331E-18
   48.32800       -2.3626448E-18
   48.48950       -2.3671953E-18
   48.65100       -2.3691185E-18
   48.81250       -2.3681889E-18
   48.97400       -2.3659675E-18
   49.13550       -2.3645239E-18
   49.29700       -2.3649176E-18
   49.45850       -2.3666146E-18
   49.62000       -2.3681784E-18
   49.78150       -2.3685155E-18
   49.94300       -2.3676562E-18
   50.10450       -2.3665553E-18
   50.26600       -2.3662575E-18
   50.42750       -2.3671641E-18
   50.58900       -2.3689115E-18
   50.75050       -2.3707921E-18
   50.91200       -2.3722781E-18
   51.07350       -2.3732593E-18
   51.23500       -2.3739385E-18
   51.39650       -2.3745853E-18
   51.55800       -2.3753662E-18
   51.71950       -2.3762748E-18
   51.88100       -2.3771438E-18
   52.04250       -2.3777127E-18
   52.20400       -2.3777880E-18
   52.36550       -2.3774184E-18
   52.52700       -2.3768965E-18
   52.68850       -2.3765226E-18
   52.85000       -2.3762846E-18
   53.01150       -2.3758275E-18
   53.17300       -2.3748155E-18
   53.33450       -2.3734120E-18
   53.49600       -2.3723811E-18
   53.65750       -2.3725918E-18
   53.81900       -2.3742865E-18
   53.98050       -2.3767521E-18
   54.14200       -2.3787735E-18
   54.30350       -2.3795893E-18
   54.46500       -2.3795635E-18
   54.62650       -2.3799436E-18
   54.78800       -2.3818188E-18
   54.94950       -2.3850973E-18
   55.11100       -2.3883976E-18
   55.27250       -2.3899938E-18
   55.43400       -2.3891054E-18
   55.59550       -2.3865066E-18
   55.75700       -2.3840003E-18
   55.91850       -2.3831851E-18
   56.08000       -2.3844281E-18
   56.24150       -2.3867364E-18
   56.40300       -2.3885256E-18
   56.56450       -2.3887330E-18
   56.72600       -2.3875458E-18
   56.88750       -2.3863058E-18
   57.04900       -2.3866466E-18
   57.21050       -2.3893799E-18
   57.37200       -2.3938247E-18
   57.53350       -2.3980485E-18
   57.69500       -2.3999882E-18
   57.85650       -2.3988054E-18
   58.01800       -2.3955833E-18
   58.17950       -2.3927688E-18
   58.34100       -2.3925744E-18
   58.50250       -2.3953686E-18
   58.66400       -2.3992833E-18
   58.82550       -2.4014836E-18
   58.98700       -2.4002928E-18
   59.14850       -2.3965856E-18
   59.31000       -2.3933073E-18
   59.47150       -2.3933892E-18
   59.63300       -2.3975673E-18
   59.79450       -2.4037389E-18
   59.95600       -2.4083550E-18
   60.11750       -2.4088680E-18
   60.27900       -2.4054952E-18
   60.44050       -2.4010650E-18
   60.60200       -2.3990628E-18
   60.76350       -2.4012396E-18
   60.92500       -2.4064098E-18
   61.08650       -2.4112294E-18
   61.24800       -2.4124152E-18
   61.40950       -2.4089350E-18
   61.57100       -2.4027479E-18
   61.73250       -2.3975950E-18
   61.89400       -2.3965790E-18
   62.05550       -2.4000511E-18
   62.21700       -2.4052472E-18
   62.37850       -2.4080601E-18
   62.54000       -2.4059063E-18
   62.70150       -2.3997386E-18
   62.86300       -2.3936750E-18
   63.02450       -2.3922986E-18
   63.18600       -2.3974246E-18
   63.34750       -2.4066603E-18
   63.50900       -2.4149079E-18
   63.67050       -2.4178510E-18
   63.83200       -2.4149743E-18
   63.99350       -2.4099146E-18
   64.15500       -2.4078359E-18
   64.31650       -2.4116552E-18
   64.47800       -2.4198379E-18
   64.63950       -2.4273718E-18
   64.80100       -2.4292485E-18
   64.96250       -2.4239856E-18
   65.12400       -2.4147267E-18
   65.28550       -2.4071874E-18
   65.44700       -2.4058833E-18
   65.60850       -2.4112021E-18
   65.77000       -2.4192293E-18
   65.93150       -2.4244287E-18
   66.09300       -2.4233966E-18
   66.25450       -2.4172075E-18
   66.41600       -2.4107325E-18
   66.57750       -2.4093257E-18
   66.73900       -2.4150452E-18
   66.90050       -2.4250210E-18
   67.06200       -2.4332004E-18
   67.22350       -2.4343880E-18
   67.38500       -2.4278520E-18
   67.54650       -2.4179540E-18
   67.70800       -2.4112536E-18
   67.86950       -2.4120094E-18
   68.03100       -2.4192212E-18
   68.19250       -2.4273555E-18
   68.35400       -2.4302970E-18
   68.51550       -2.4257295E-18
   68.67700       -2.4167953E-18
   68.83850       -2.4098575E-18
   69.00000       -2.4100087E-18
   69.16150       -2.4175243E-18
   69.32300       -2.4277215E-18
   69.48450       -2.4342391E-18
   69.64600       -2.4334026E-18
   69.80750       -2.4266946E-18
   69.96900       -2.4196888E-18
   70.13050       -2.4182172E-18
   70.29200       -2.4243779E-18
   70.45350       -2.4350828E-18
   70.61500       -2.4441355E-18
   70.77650       -2.4464295E-18
   70.93800       -2.4414300E-18
   71.09950       -2.4335670E-18
   71.26100       -2.4292152E-18
   71.42250       -2.4322646E-18
   71.58400       -2.4413183E-18
   71.74550       -2.4505385E-18
   71.90700       -2.4536865E-18
   72.06850       -2.4485735E-18
   72.23000       -2.4387361E-18
   72.39150       -2.4310402E-18
   72.55300       -2.4308752E-18
   72.71450       -2.4383576E-18
   72.87600       -2.4482733E-18
   73.03750       -2.4537484E-18
   73.19900       -2.4510106E-18
   73.36050       -2.4419098E-18
   73.52200       -2.4325043E-18
   73.68350       -2.4288138E-18
   73.84500       -2.4327212E-18
   74.00650       -2.4408100E-18
   74.16800       -2.4468284E-18
   74.32950       -2.4459946E-18
   74.49100       -2.4382052E-18
   74.65250       -2.4280619E-18
   74.81400       -2.4218043E-18
   74.97550       -2.4232324E-18
   75.13700       -2.4312830E-18
   75.29850       -2.4408046E-18
   75.46000       -2.4460103E-18
   75.62150       -2.4443255E-18
   75.78300       -2.4380282E-18
   75.94450       -2.4325471E-18
   76.10600       -2.4325727E-18
   76.26750       -2.4387168E-18
   76.42900       -2.4470860E-18
   76.59050       -2.4520512E-18
   76.75200       -2.4502099E-18
   76.91350       -2.4427233E-18
   77.07500       -2.4344413E-18
   77.23650       -2.4305220E-18
   77.39800       -2.4329958E-18
   77.55950       -2.4396497E-18
   77.72100       -2.4458709E-18
   77.88250       -2.4480024E-18
   78.04400       -2.4457975E-18
   78.20550       -2.4423610E-18
   78.36700       -2.4418138E-18
   78.52850       -2.4464208E-18
   78.69000       -2.4551020E-18
   78.85150       -2.4641975E-18
   79.01300       -2.4698616E-18
   79.17450       -2.4704946E-18
   79.33600       -2.4676785E-18
   79.49750       -2.4650255E-18
   79.65900       -2.4656869E-18
   79.82050       -2.4701760E-18
   79.98200       -2.4759935E-18
   80.14350       -2.4793353E-18
   80.30500       -2.4777368E-18
   80.46650       -2.4718196E-18
   80.62800       -2.4649217E-18
   80.78950       -2.4608578E-18
   80.95100       -2.4613593E-18
   81.11250       -2.4649914E-18
   81.27400       -2.4682745E-18
   81.43550       -2.4681909E-18
   81.59700       -2.4642674E-18
   81.75850       -2.4587931E-18
   81.92000       -2.4551349E-18
   82.08150       -2.4554393E-18
   82.24300       -2.4593109E-18
   82.40450       -2.4642314E-18
   82.56600       -2.4672504E-18
   82.72750       -2.4667738E-18
   82.88900       -2.4633676E-18
   83.05050       -2.4592305E-18
   83.21200       -2.4567490E-18
   83.37350       -2.4570461E-18
   83.53500       -2.4593655E-18
   83.69650       -2.4616219E-18
   83.85800       -2.4617573E-18
   84.01950       -2.4590847E-18
   84.18100       -2.4547867E-18
   84.34250       -2.4512424E-18
   84.50400       -2.4505621E-18
   84.66550       -2.4532401E-18
   84.82700       -2.4578367E-18
   84.98850       -2.4619465E-18
   85.15000       -2.4637996E-18
   85.31150       -2.4633660E-18
   85.47300       -2.4622042E-18
   85.63450       -2.4622247E-18
   85.79600       -2.4643272E-18
   85.95750       -2.4678723E-18
   86.11900       -2.4712389E-18
   86.28050       -2.4729760E-18
   86.44200       -2.4727078E-18
   86.60350       -2.4712718E-18
   86.76500       -2.4701075E-18
   86.92650       -2.4703697E-18
   87.08800       -2.4722993E-18
   87.24950       -2.4751680E-18
   87.41100       -2.4777438E-18
   87.57250       -2.4789929E-18
   87.73400       -2.4786666E-18
   87.89550       -2.4774717E-18
   88.05700       -2.4766733E-18
   88.21850       -2.4772748E-18
   88.38000       -2.4792737E-18
   88.54150       -2.4815538E-18
   88.70300       -2.4826234E-18
   88.86450       -2.4817108E-18
   89.02600       -2.4793860E-18
   89.18750       -2.4771845E-18
   89.34900       -2.4765004E-18
   89.51050       -2.4776212E-18
   89.67200       -2.4796141E-18
   89.83350       -2.4811278E-18
   89.99500       -2.4814308E-18
   90.15650       -2.4808859E-18
   90.31800       -2.4805804E-18
   90.47950       -2.4814711E-18
   90.64100       -2.4837446E-18
   90.80250       -2.4868077E-18
   90.96400       -2.4897657E-18
   91.12550       -2.4919397E-18
   91.28700       -2.4930901E-18
   91.44850       -2.4933734E-18
   91.61000       -2.4931981E-18
   91.77150       -2.4930444E-18
   91.93300       -2.4932158E-18
   92.09450       -2.4935819E-18
   92.25600       -2.4935420E-18
   92.41750       -2.4923754E-18
   92.57900       -2.4898068E-18
   92.74050       -2.4863385E-18
   92.90200       -2.4830343E-18
   93.06350       -2.4808540E-18
   93.22500       -2.4800548E-18
   93.38650       -2.4801267E-18
   93.54800       -2.4803087E-18
   93.70950       -2.4802394E-18
   93.87100       -2.4802117E-18
   94.03250       -2.4808573E-18
   94.19400       -2.4826000E-18
   94.35550       -2.4853611E-18
   94.51700       -2.4886918E-18
   94.67850       -2.4920882E-18
   94.84000       -2.4951510E-18
   95.00150       -2.4975482E-18
   95.16300       -2.4990131E-18
   95.32450       -2.4995225E-18
   95.48600       -2.4994702E-18
   95.64750       -2.4995202E-18
   95.80900       -2.5000994E-18
   95.97050       -2.5009183E-18
   96.13200       -2.5010215E-18
   96.29350       -2.4994735E-18
   96.45500       -2.4961966E-18
   96.61650       -2.4922559E-18
   96.77800       -2.4892561E-18
   96.93950       -2.4882507E-18
   97.10100       -2.4890018E-18
   97.26250       -2.4901873E-18
   97.42400       -2.4904142E-18
   97.58550       -2.4892510E-18
   97.74700       -2.4875348E-18
   97.90850       -2.4867702E-18
   98.07000       -2.4881268E-18
   98.23150       -2.4916940E-18
   98.39300       -2.4964272E-18
   98.55450       -2.5007271E-18
   98.71600       -2.5033157E-18
   98.87750       -2.5039471E-18
   99.03900       -2.5035802E-18
   99.20050       -2.5038354E-18
   99.36200       -2.5059617E-18
   99.52350       -2.5099009E-18
   99.68500       -2.5141218E-18
   99.84650       -2.5165084E-18
   100.0080       -2.5158206E-18
   100.1695       -2.5127243E-18
   100.3310       -2.5095130E-18
   100.4925       -2.5085677E-18
   100.6540       -2.5106065E-18
   100.8155       -2.5140668E-18
   100.9770       -2.5161982E-18
   101.1385       -2.5151032E-18
   101.3000       -2.5111843E-18
   101.4615       -2.5068639E-18
   101.6230       -2.5048075E-18
   101.7845       -2.5059912E-18
   101.9460       -2.5090597E-18
   102.1075       -2.5113952E-18
   102.2690       -2.5110343E-18
   102.4305       -2.5080391E-18
   102.5920       -2.5043933E-18
   102.7535       -2.5025849E-18
   102.9150       -2.5039055E-18
   103.0765       -2.5076013E-18
   103.2380       -2.5113789E-18
   103.3995       -2.5128988E-18
   103.5610       -2.5112873E-18
   103.7225       -2.5077240E-18
   103.8840       -2.5047031E-18
   104.0455       -2.5043749E-18
   104.2070       -2.5070087E-18
   104.3685       -2.5106631E-18
   104.5300       -2.5124337E-18
   104.6915       -2.5105418E-18
   104.8530       -2.5057933E-18
   105.0145       -2.5012316E-18
   105.1760       -2.5000599E-18
   105.3375       -2.5032857E-18
   105.4990       -2.5088737E-18
   105.6605       -2.5131587E-18
   105.8220       -2.5135372E-18
   105.9835       -2.5104402E-18
   106.1450       -2.5070647E-18
   106.3065       -2.5070291E-18
   106.4680       -2.5116984E-18
   106.6295       -2.5191709E-18
   106.7910       -2.5256512E-18
   106.9525       -2.5281502E-18
   107.1140       -2.5265359E-18
   107.2755       -2.5234940E-18
   107.4370       -2.5225419E-18
   107.5985       -2.5255427E-18
   107.7600       -2.5314289E-18
   107.9215       -2.5369193E-18
   108.0830       -2.5386878E-18
   108.2445       -2.5355398E-18
   108.4060       -2.5291974E-18
   108.5675       -2.5231931E-18
   108.7290       -2.5205635E-18
   108.8905       -2.5218446E-18
   109.0520       -2.5247304E-18
   109.2135       -2.5257094E-18
   109.3750       -2.5226329E-18
   109.5365       -2.5164305E-18
   109.6980       -2.5106634E-18
   109.8595       -2.5090998E-18
   110.0210       -2.5129952E-18
   110.1825       -2.5200864E-18
   110.3440       -2.5261376E-18
   110.5055       -2.5279657E-18
   110.6670       -2.5256990E-18
   110.8285       -2.5225758E-18
   110.9900       -2.5224232E-18
   111.1515       -2.5267516E-18
   111.3130       -2.5336217E-18
   111.4745       -2.5390894E-18
   111.6360       -2.5400820E-18
   111.7975       -2.5365535E-18
   111.9590       -2.5314059E-18
   112.1205       -2.5283410E-18
   112.2820       -2.5292578E-18
   112.4435       -2.5330299E-18
   112.6050       -2.5364205E-18
   112.7665       -2.5364087E-18
   112.9280       -2.5323026E-18
   113.0895       -2.5262408E-18
   113.2510       -2.5217813E-18
   113.4125       -2.5215168E-18
   113.5740       -2.5253034E-18
   113.7355       -2.5303037E-18
   113.8970       -2.5329046E-18
   114.0585       -2.5312587E-18
   114.2200       -2.5266836E-18
   114.3815       -2.5228270E-18
   114.5430       -2.5230696E-18
   114.7045       -2.5279715E-18
   114.8660       -2.5346708E-18
   115.0275       -2.5387947E-18
   115.1890       -2.5375740E-18
   115.3505       -2.5318898E-18
   115.5120       -2.5256907E-18
   115.6735       -2.5231834E-18
   115.8350       -2.5258460E-18
   115.9965       -2.5314684E-18
   116.1580       -2.5358715E-18
   116.3195       -2.5360005E-18
   116.4810       -2.5321012E-18
   116.6425       -2.5274712E-18
   116.8040       -2.5260502E-18
   116.9655       -2.5296383E-18
   117.1270       -2.5366699E-18
   117.2885       -2.5433029E-18
   117.4500       -2.5459906E-18
   117.6115       -2.5437682E-18
   117.7730       -2.5387734E-18
   117.9345       -2.5347260E-18
   118.0960       -2.5344291E-18
   118.2575       -2.5379355E-18
   118.4190       -2.5425855E-18
   118.5805       -2.5448846E-18
   118.7420       -2.5429710E-18