  -27.90000        6.2662588E-18
  -27.73850        6.2688036E-18
  -27.57700        6.2724581E-18
  -27.41550        6.2756973E-18
  -27.25400        6.2781553E-18
  -27.09250        6.2806492E-18
  -26.93100        6.2840394E-18
  -26.76950        6.2881724E-18
  -26.60800        6.2919903E-18
  -26.44650        6.2946385E-18
  -26.28500        6.2963826E-18
  -26.12350        6.2983645E-18
  -25.96200        6.3014354E-18
  -25.80050        6.3052690E-18
  -25.63900        6.3086857E-18
  -25.47750        6.3108773E-18
  -25.31600        6.3122752E-18
  -25.15450        6.3141314E-18
  -24.99300        6.3172242E-18
  -24.83150        6.3210074E-18
  -24.67000        6.3241238E-18
  -24.50850        6.3257752E-18
  -24.34700        6.3265437E-18
  -24.18550        6.3278324E-18
  -24.02400        6.3304840E-18
  -23.86250        6.3339883E-18
  -23.70100        6.3370600E-18
  -23.53950        6.3389419E-18
  -23.37800        6.3401053E-18
  -23.21650        6.3416683E-18
  -23.05500        6.3441721E-18
  -22.89350        6.3470052E-18
  -22.73200        6.3490707E-18
  -22.57050        6.3499980E-18
  -22.40900        6.3506287E-18
  -22.24750        6.3522243E-18
  -22.08600        6.3551716E-18
  -21.92450        6.3585192E-18
  -21.76300        6.3608589E-18
  -21.60150        6.3616856E-18
  -21.44000        6.3618684E-18
  -21.27850        6.3627651E-18
  -21.11700        6.3649042E-18
  -20.95550        6.3675867E-18
  -20.79400        6.3697539E-18
  -20.63250        6.3711763E-18
  -20.47100        6.3726842E-18
  -20.30950        6.3752224E-18
  -20.14800        6.3787255E-18
  -19.98650        6.3820301E-18
  -19.82500        6.3839264E-18
  -19.66350        6.3843330E-18
  -19.50200        6.3843797E-18
  -19.34050        6.3853074E-18
  -19.17900        6.3872798E-18
  -19.01750        6.3893006E-18
  -18.85600        6.3903288E-18
  -18.69450        6.3904459E-18
  -18.53300        6.3908623E-18
  -18.37150        6.3927314E-18
  -18.21000        6.3959838E-18
  -18.04850        6.3993744E-18
  -17.88700        6.4016765E-18
  -17.72550        6.4027953E-18
  -17.56400        6.4036936E-18
  -17.40250        6.4052710E-18
  -17.24100        6.4074213E-18
  -17.07950        6.4092340E-18
  -16.91800        6.4101005E-18
  -16.75650        6.4105244E-18
  -16.59500        6.4117441E-18
  -16.43350        6.4145152E-18
  -16.27200        6.4182879E-18
  -16.11050        6.4216608E-18
  -15.94900        6.4237097E-18
  -15.78750        6.4248839E-18
  -15.62600        6.4265527E-18
  -15.46450        6.4296381E-18
  -15.30300        6.4337041E-18
  -15.14150        6.4374099E-18
  -14.98000        6.4398327E-18
  -14.81850        6.4413030E-18
  -14.65700        6.4428986E-18
  -14.49550        6.4451916E-18
  -14.33400        6.4475598E-18
  -14.17250        6.4487832E-18
  -14.01100        6.4482852E-18
  -13.84950        6.4467330E-18
  -13.68800        6.4453864E-18
  -13.52650        6.4448855E-18
  -13.36500        6.4447147E-18
  -13.20350        6.4438834E-18
  -13.04200        6.4421099E-18
  -12.88050        6.4402715E-18
  -12.71900        6.4396131E-18
  -12.55750        6.4405176E-18
  -12.39600        6.4421054E-18
  -12.23450        6.4431261E-18
  -12.07300        6.4432440E-18
  -11.91150        6.4433970E-18
  -11.75000        6.4448437E-18
  -11.58850        6.4478787E-18
  -11.42700        6.4515493E-18
  -11.26550        6.4546462E-18
  -11.10400        6.4569437E-18
  -10.94250        6.4593955E-18
  -10.78100        6.4630988E-18
  -10.61950        6.4680801E-18
  -10.45800        6.4731441E-18
  -10.29650        6.4769524E-18
  -10.13500        6.4792611E-18
  -9.973500        6.4811148E-18
  -9.812000        6.4838023E-18
  -9.650500        6.4876321E-18
  -9.489000        6.4917292E-18
  -9.327500        6.4950089E-18
  -9.166000        6.4972833E-18
  -9.004500        6.4993276E-18
  -8.843000        6.5018878E-18
  -8.681500        6.5047246E-18
  -8.520000        6.5067752E-18
  -8.358500        6.5072785E-18
  -8.197000        6.5066561E-18
  -8.035500        6.5061742E-18
  -7.874000        6.5066842E-18
  -7.712500        6.5077388E-18
  -7.551000        6.5080176E-18
  -7.389500        6.5066833E-18
  -7.228000        6.5043035E-18
  -7.066500        6.5023998E-18
  -6.905000        6.5020329E-18
  -6.743500        6.5028001E-18
  -6.582000        6.5032551E-18
  -6.420500        6.5023543E-18
  -6.259000        6.5005018E-18
  -6.097500        6.4991651E-18
  -5.936000        6.4994563E-18
  -5.774500        6.5011243E-18
  -5.613000        6.5029441E-18
  -5.451500        6.5040405E-18
  -5.290000        6.5047440E-18
  -5.128500        6.5061076E-18
  -4.967000        6.5086587E-18
  -4.805500        6.5117308E-18
  -4.644000        6.5140974E-18
  -4.482500        6.5152174E-18
  -4.321000        6.5157964E-18
  -4.159500        6.5170545E-18
  -3.998000        6.5194654E-18
  -3.836500        6.5222757E-18
  -3.675000        6.5243073E-18
  -3.513500        6.5252254E-18
  -3.352000        6.5259236E-18
  -3.190500        6.5275916E-18
  -3.029000        6.5304143E-18
  -2.867500        6.5332904E-18
  -2.706000        6.5349382E-18
  -2.544500        6.5352728E-18
  -2.383000        6.5355917E-18
  -2.221500        6.5373027E-18
  -2.060000        6.5404538E-18
  -1.898500        6.5435797E-18
  -1.737000        6.5450616E-18
  -1.575500        6.5446716E-18
  -1.414000        6.5437762E-18
  -1.252500        6.5440128E-18
  -1.091000        6.5457722E-18
 -0.9295000        6.5479539E-18
 -0.7680000        6.5491727E-18
 -0.6065000        6.5491611E-18
 -0.4450000        6.5489763E-18
 -0.2835000        6.5498717E-18
 -0.1220000        6.5520472E-18
  3.9500002E-02    6.5545581E-18
  0.2010000        6.5564110E-18
  0.3625000        6.5576240E-18
  0.5240000        6.5590861E-18
  0.6855000        6.5613914E-18
  0.8470000        6.5639764E-18
   1.008500        6.5655741E-18
   1.170000        6.5655691E-18
   1.331500        6.5647796E-18
   1.493000        6.5647676E-18
   1.654500        6.5663160E-18
   1.816000        6.5686168E-18
   1.977500        6.5700549E-18
   2.139000        6.5698220E-18
   2.300500        6.5687417E-18
   2.462000        6.5684737E-18
   2.623500        6.5698783E-18
   2.785000        6.5721712E-18
   2.946500        6.5737321E-18
   3.108000        6.5737425E-18
   3.269500        6.5730121E-18
   3.431000        6.5731465E-18
   3.592500        6.5749233E-18
   3.754000        6.5775347E-18
   3.915500        6.5794537E-18
   4.077000        6.5799926E-18
   4.238500        6.5799290E-18
   4.400000        6.5805936E-18
   4.561500        6.5824192E-18
   4.723000        6.5844842E-18
   4.884500        6.5854876E-18
   5.046000        6.5850901E-18
   5.207500        6.5842162E-18
   5.369000        6.5840413E-18
   5.530500        6.5847696E-18
   5.692000        6.5855013E-18
   5.853500        6.5853234E-18
   6.015000        6.5844511E-18
   6.176500        6.5841724E-18
   6.338000        6.5855927E-18
   6.499500        6.5884746E-18
   6.661000        6.5914119E-18
   6.822500        6.5932300E-18
   6.984000        6.5941796E-18
   7.145500        6.5956698E-18
   7.307000        6.5987730E-18
   7.468500        6.6030387E-18
   7.630000        6.6068338E-18
   7.791500        6.6088786E-18
   7.953000        6.6094138E-18
   8.114500        6.6098489E-18
   8.276000        6.6112828E-18
   8.437500        6.6134273E-18
   8.599000        6.6149898E-18
   8.760500        6.6150717E-18
   8.922000        6.6141308E-18
   9.083500        6.6135394E-18
   9.245000        6.6142152E-18
   9.406500        6.6157302E-18
   9.568000        6.6168092E-18
   9.729500        6.6166851E-18
   9.891000        6.6158923E-18
   10.05250        6.6156938E-18
   10.21400        6.6167600E-18
   10.37550        6.6185033E-18
   10.53700        6.6197511E-18
   10.69850        6.6200183E-18
   10.86000        6.6200092E-18
   11.02150        6.6208268E-18
   11.18300        6.6227546E-18
   11.34450        6.6249276E-18
   11.50600        6.6262449E-18
   11.66750        6.6265712E-18
   11.82900        6.6269372E-18
   11.99050        6.6284985E-18
   12.15200        6.6312849E-18
   12.31350        6.6340402E-18
   12.47500        6.6353525E-18
   12.63650        6.6349940E-18
   12.79800        6.6341370E-18
   12.95950        6.6342102E-18
   13.12100        6.6355254E-18
   13.28250        6.6370338E-18
   13.44400        6.6374354E-18
   13.60550        6.6364957E-18
   13.76700        6.6352355E-18
   13.92850        6.6348699E-18
   14.09000        6.6356156E-18
   14.25150        6.6365900E-18
   14.41300        6.6368381E-18
   14.57450        6.6363584E-18
   14.73600        6.6360664E-18
   14.89750        6.6367807E-18
   15.05900        6.6383184E-18
   15.22050        6.6396510E-18
   15.38200        6.6399500E-18
   15.54350        6.6394463E-18
   15.70500        6.6391956E-18
   15.86650        6.6400054E-18
   16.02800        6.6416143E-18
   16.18950        6.6430027E-18
   16.35100        6.6434965E-18
   16.51250        6.6434916E-18
   16.67400        6.6440123E-18
   16.83550        6.6455653E-18
   16.99700        6.6475266E-18
   17.15850        6.6487735E-18
   17.32000        6.6489204E-18
   17.48150        6.6488513E-18
   17.64300        6.6499150E-18
   17.80450        6.6525376E-18
   17.96600        6.6556577E-18
   18.12750        6.6576049E-18
   18.28900        6.6576335E-18
   18.45050        6.6566677E-18
   18.61200        6.6565329E-18
   18.77350        6.6583825E-18
   18.93500        6.6617723E-18
   19.09650        6.6651815E-18
   19.25800        6.6674227E-18
   19.41950        6.6685688E-18
   19.58100        6.6695957E-18
   19.74250        6.6712505E-18
   19.90400        6.6733470E-18
   20.06550        6.6751325E-18
   20.22700        6.6761669E-18
   20.38850        6.6766967E-18
   20.55000        6.6771549E-18
   20.71150        6.6774614E-18
   20.87300        6.6770255E-18
   21.03450        6.6755122E-18
   21.19600        6.6735158E-18
   21.35750        6.6722799E-18
   21.51900        6.6725906E-18
   21.68050        6.6739103E-18
   21.84200        6.6747106E-18
   22.00350        6.6738264E-18
   22.16500        6.6715876E-18
   22.32650        6.6696019E-18
   22.48800        6.6692955E-18
   22.64950        6.6705950E-18
   22.81100        6.6720322E-18
   22.97250        6.6722163E-18
   23.13400        6.6712344E-18
   23.29550        6.6706099E-18
   23.45700        6.6718585E-18
   23.61850        6.6750522E-18
   23.78000        6.6787667E-18
   23.94150        6.6814013E-18
   24.10300        6.6825556E-18
   24.26450        6.6831900E-18
   24.42600        6.6845375E-18
   24.58750        6.6869157E-18
   24.74900        6.6895498E-18
   24.91050        6.6914321E-18
   25.07200        6.6922382E-18
   25.23350        6.6923937E-18
   25.39500        6.6923759E-18
   25.55650        6.6921654E-18
   25.71800        6.6915016E-18
   25.87950        6.6905945E-18
   26.04100        6.6903253E-18
   26.20250        6.6914863E-18
   26.36400        6.6937908E-18
   26.52550        6.6958459E-18
   26.68700        6.6963509E-18
   26.84850        6.6954538E-18
   27.01000        6.6948239E-18
   27.17150        6.6961673E-18
   27.33300        6.6995116E-18
   27.49450        6.7029291E-18
   27.65600        6.7040908E-18
   27.81750        6.7022867E-18
   27.97900        6.6990769E-18
   28.14050        6.6969568E-18
   28.30200        6.6972840E-18
   28.46350        6.6993163E-18
   28.62500        6.7011655E-18
   28.78650        6.7016200E-18
   28.94800        6.7010877E-18
   29.10950        6.7008855E-18
   29.27100        6.7017909E-18
   29.43250        6.7033650E-18
   29.59400        6.7046256E-18
   29.75550        6.7051641E-18
   29.91700        6.7054520E-18
   30.07850        6.7061017E-18
   30.24000        6.7070600E-18
   30.40150        6.7077267E-18
   30.56300        6.7078599E-18
   30.72450        6.7081552E-18
   30.88600        6.7096714E-18
   31.04750        6.7126009E-18
   31.20900        6.7157239E-18
   31.37050        6.7173208E-18
   31.53200        6.7168096E-18
   31.69350        6.7154786E-18
   31.85500        6.7154120E-18
   32.01650        6.7175205E-18
   32.17800        6.7205703E-18
   32.33950        6.7222702E-18
   32.50100        6.7214467E-18
   32.66250        6.7192212E-18
   32.82400        6.7180098E-18
   32.98550        6.7192894E-18
   33.14700        6.7222785E-18
   33.30850        6.7247389E-18
   33.47000        6.7250450E-18
   33.63150        6.7234928E-18
   33.79300        6.7217280E-18
   33.95450        6.7210505E-18
   34.11600        6.7213293E-18
   34.27750        6.7214773E-18
   34.43900        6.7207498E-18
   34.60050        6.7194189E-18
   34.76200        6.7182017E-18
   34.92350        6.7172653E-18
   35.08500        6.7160643E-18
   35.24650        6.7142486E-18
   35.40800        6.7125583E-18
   35.56950        6.7124937E-18
   35.73100        6.7148839E-18
   35.89250        6.7188308E-18
   36.05400        6.7222996E-18
   36.21550        6.7239738E-18
   36.37700        6.7245387E-18
   36.53850        6.7260066E-18
   36.70000        6.7296362E-18
   36.86150        6.7344893E-18
   37.02300        6.7381111E-18
   37.18450        6.7387398E-18
   37.34600        6.7369320E-18
   37.50750        6.7350543E-18
   37.66900        6.7351424E-18
   37.83050        6.7372091E-18
   37.99200        6.7395181E-18
   38.15350        6.7404198E-18
   38.31500        6.7398474E-18
   38.47650        6.7390789E-18
   38.63800        6.7392059E-18
   38.79950        6.7400339E-18
   38.96100        6.7405356E-18
   39.12250        6.7402213E-18
   39.28400        6.7398027E-18
   39.44550        6.7403730E-18
   39.60700        6.7420497E-18
   39.76850        6.7436851E-18
   39.93000        6.7440536E-18
   40.09150        6.7432640E-18
   40.25300        6.7427814E-18
   40.41450        6.7439010E-18
   40.57600        6.7462286E-18
   40.73750        6.7478235E-18
   40.89900        6.7469996E-18
   41.06050        6.7440565E-18
   41.22200        6.7411696E-18
   41.38350        6.7404706E-18
   41.54500        6.7421535E-18
   41.70650        6.7444440E-18
   41.86800        6.7454234E-18
   42.02950        6.7448609E-18
   42.19100        6.7442314E-18
   42.35250        6.7450226E-18
   42.51400        6.7471390E-18
   42.67550        6.7490684E-18
   42.83700        6.7495353E-18
   42.99850        6.7488334E-18
   43.16000        6.7484244E-18
   43.32150        6.7493058E-18
   43.48300        6.7509390E-18
   43.64450        6.7518837E-18
   43.80600        6.7514068E-18
   43.96750        6.7503120E-18
   44.12900        6.7500738E-18
   44.29050        6.7512161E-18
   44.45200        6.7527018E-18
   44.61350        6.7530570E-18
   44.77500        6.7520719E-18
   44.93650        6.7512534E-18
   45.09800        6.7524317E-18
   45.25950        6.7558769E-18
   45.42100        6.7598887E-18
   45.58250        6.7623529E-18
   45.74400        6.7627297E-18
   45.90550        6.7624724E-18
   46.06700        6.7634406E-18
   46.22850        6.7659763E-18
   46.39000        6.7685691E-18
   46.55150        6.7694005E-18
   46.71300        6.7681270E-18
   46.87450        6.7661083E-18
   47.03600        6.7649664E-18
   47.19750        6.7650408E-18
   47.35900        6.7653038E-18
   47.52050        6.7646971E-18
   47.68200        6.7633484E-18
   47.84350        6.7623686E-18
   48.00500        6.7625171E-18
   48.16650        6.7632830E-18
   48.32800        6.7634824E-18
   48.48950        6.7627611E-18
   48.65100        6.7623049E-18
   48.81250        6.7638120E-18
   48.97400        6.7676845E-18
   49.13550        6.7723266E-18
   49.29700        6.7754141E-18
   49.45850        6.7759492E-18
   49.62000        6.7750633E-18
   49.78150        6.7747627E-18
   49.94300        6.7759038E-18
   50.10450        6.7774390E-18
   50.26600        6.7776210E-18
   50.42750        6.7758802E-18
   50.58900        6.7734586E-18
   50.75050        6.7722083E-18
   50.91200        6.7728378E-18
   51.07350        6.7743892E-18
   51.23500        6.7753876E-18
   51.39650        6.7753917E-18
   51.55800        6.7753024E-18
   51.71950        6.7761986E-18
   51.88100        6.7780209E-18
   52.04250        6.7795735E-18
   52.20400        6.7798370E-18
   52.36550        6.7791174E-18
   52.52700        6.7787509E-18
   52.68850        6.7796488E-18
   52.85000        6.7812755E-18
   53.01150        6.7821932E-18
   53.17300        6.7816096E-18
   53.33450        6.7802709E-18
   53.49600        6.7797075E-18
   53.65750        6.7806265E-18
   53.81900        6.7821304E-18
   53.98050        6.7826291E-18
   54.14200        6.7815385E-18
   54.30350        6.7799954E-18
   54.46500        6.7798209E-18
   54.62650        6.7817300E-18
   54.78800        6.7845792E-18
   54.94950        6.7864118E-18
   55.11100        6.7862683E-18
   55.27250        6.7849655E-18
   55.43400        6.7841503E-18
   55.59550        6.7846508E-18
   55.75700        6.7858010E-18
   55.91850        6.7863221E-18
   56.08000        6.7857100E-18
   56.24150        6.7846557E-18
   56.40300        6.7841549E-18
   56.56450        6.7843948E-18
   56.72600        6.7846280E-18
   56.88750        6.7841334E-18
   57.04900        6.7831341E-18
   57.21050        6.7826482E-18
   57.37200        6.7834299E-18
   57.53350        6.7851715E-18
   57.69500        6.7868515E-18
   57.85650        6.7878991E-18
   58.01800        6.7889252E-18
   58.17950        6.7911743E-18
   58.34100        6.7951932E-18
   58.50250        6.8000653E-18
   58.66400        6.8040378E-18
   58.82550        6.8059656E-18
   58.98700        6.8061595E-18
   59.14850        6.8058274E-18
   59.31000        6.8057522E-18
   59.47150        6.8055780E-18
   59.63300        6.8043861E-18
   59.79450        6.8018669E-18
   59.95600        6.7988233E-18
   60.11750        6.7964977E-18
   60.27900        6.7954699E-18
   60.44050        6.7952681E-18
   60.60200        6.7950389E-18
   60.76350        6.7945331E-18
   60.92500        6.7943573E-18
   61.08650        6.7952594E-18
   61.24800        6.7972181E-18
   61.40950        6.7993382E-18
   61.57100        6.8006762E-18
   61.73250        6.8011630E-18
   61.89400        6.8016320E-18
   62.05550        6.8029215E-18
   62.21700        6.8049539E-18
   62.37850        6.8067704E-18
   62.54000        6.8074698E-18
   62.70150        6.8070781E-18
   62.86300        6.8064602E-18
   63.02450        6.8064218E-18
   63.18600        6.8069483E-18
   63.34750        6.8073523E-18
   63.50900        6.8070976E-18
   63.67050        6.8064102E-18
   63.83200        6.8060483E-18
   63.99350        6.8064925E-18
   64.15500        6.8074334E-18
   64.31650        6.8080881E-18
   64.47800        6.8080306E-18
   64.63950        6.8076708E-18
   64.80100        6.8078528E-18
   64.96250        6.8089761E-18
   65.12400        6.8105527E-18
   65.28550        6.8117008E-18
   65.44700        6.8120582E-18
   65.60850        6.8121549E-18
   65.77000        6.8128274E-18
   65.93150        6.8142771E-18
   66.09300        6.8157631E-18
   66.25450        6.8162722E-18
   66.41600        6.8154922E-18
   66.57750        6.8141369E-18
   66.73900        6.8133113E-18
   66.90050        6.8135434E-18
   67.06200        6.8144057E-18
   67.22350        6.8150455E-18
   67.38500        6.8150555E-18
   67.54650        6.8148387E-18
   67.70800        6.8151303E-18
   67.86950        6.8161941E-18
   68.03100        6.8175105E-18
   68.19250        6.8182339E-18
   68.35400        6.8179096E-18
   68.51550        6.8167202E-18
   68.67700        6.8151022E-18
   68.83850        6.8132667E-18
   69.00000        6.8111838E-18
   69.16150        6.8089918E-18
   69.32300        6.8072407E-18
   69.48450        6.8065760E-18
   69.64600        6.8071476E-18
   69.80750        6.8083909E-18
   69.96900        6.8095212E-18
   70.13050        6.8102975E-18
   70.29200        6.8113166E-18
   70.45350        6.8134685E-18
   70.61500        6.8170328E-18
   70.77650        6.8212676E-18
   70.93800        6.8249274E-18
   71.09950        6.8272688E-18
   71.26100        6.8285852E-18
   71.42250        6.8297859E-18
   71.58400        6.8314303E-18
   71.74550        6.8331810E-18
   71.90700        6.8341604E-18
   72.06850        6.8337911E-18
   72.23000        6.8322695E-18
   72.39150        6.8302690E-18
   72.55300        6.8282990E-18
   72.71450        6.8263969E-18
   72.87600        6.8243927E-18
   73.03750        6.8223487E-18
   73.19900        6.8206517E-18
   73.36050        6.8196641E-18
   73.52200        6.8193527E-18
   73.68350        6.8193365E-18
   73.84500        6.8193192E-18
   74.00650        6.8194358E-18
   74.16800        6.8201058E-18
   74.32950        6.8215091E-18
   74.49100        6.8232656E-18
   74.65250        6.8247124E-18
   74.81400        6.8255470E-18
   74.97550        6.8261388E-18
   75.13700        6.8271373E-18
   75.29850        6.8287362E-18
   75.46000        6.8303533E-18
   75.62150        6.8310916E-18
   75.78300        6.8305605E-18
   75.94450        6.8292490E-18
   76.10600        6.8281295E-18
   76.26750        6.8278594E-18
   76.42900        6.8283342E-18
   76.59050        6.8289484E-18
   76.75200        6.8292495E-18
   76.91350        6.8293467E-18
   77.07500        6.8297181E-18
   77.23650        6.8306623E-18
   77.39800        6.8319651E-18
   77.55950        6.8330971E-18
   77.72100        6.8336794E-18
   77.88250        6.8337303E-18
   78.04400        6.8334784E-18
   78.20550        6.8330094E-18
   78.36700        6.8321860E-18
   78.52850        6.8308939E-18
   78.69000        6.8293032E-18
   78.85150        6.8277994E-18
   79.01300        6.8266558E-18
   79.17450        6.8258071E-18
   79.33600        6.8249713E-18
   79.49750        6.8240051E-18
   79.65900        6.8231101E-18
   79.82050        6.8226779E-18
   79.98200        6.8229083E-18
   80.14350        6.8235965E-18
   80.30500        6.8243224E-18
   80.46650        6.8248642E-18
   80.62800        6.8254378E-18
   80.78950        6.8264668E-18
   80.95100        6.8281022E-18
   81.11250        6.8299670E-18
   81.27400        6.8314034E-18
   81.43550        6.8320213E-18
   81.59700        6.8320346E-18
   81.75850        6.8320863E-18
   81.92000        6.8327402E-18
   82.08150        6.8340996E-18
   82.24300        6.8358309E-18
   82.40450        6.8374998E-18
   82.56600        6.8388940E-18
   82.72750        6.8400781E-18
   82.88900        6.8412026E-18
   83.05050        6.8423003E-18
   83.21200        6.8432636E-18
   83.37350        6.8439662E-18
   83.53500        6.8443666E-18
   83.69650        6.8444572E-18
   83.85800        6.8441598E-18
   84.01950        6.8433343E-18
   84.18100        6.8419376E-18
   84.34250        6.8401658E-18
   84.50400        6.8383625E-18
   84.66550        6.8367445E-18
   84.82700        6.8352052E-18
   84.98850        6.8334197E-18
   85.15000        6.8311838E-18
   85.31150        6.8286853E-18
   85.47300        6.8264606E-18
   85.63450        6.8250503E-18
   85.79600        6.8246474E-18
   85.95750        6.8250387E-18
   86.11900        6.8258857E-18
   86.28050        6.8270661E-18
   86.44200        6.8287469E-18
   86.60350        6.8311048E-18
   86.76500        6.8339884E-18
   86.92650        6.8368653E-18
   87.08800        6.8391471E-18
   87.24950        6.8405868E-18
   87.41100        6.8413987E-18
   87.57250        6.8419905E-18
   87.73400        6.8425964E-18
   87.89550        6.8431283E-18
   88.05700        6.8433446E-18
   88.21850        6.8431473E-18
   88.38000        6.8427060E-18
   88.54150        6.8423243E-18
   88.70300        6.8421874E-18
   88.86450        6.8422680E-18
   89.02600        6.8424475E-18
   89.18750        6.8427197E-18
   89.34900        6.8432222E-18
   89.51050        6.8440568E-18
   89.67200        6.8451073E-18
   89.83350        6.8460809E-18
   89.99500        6.8467530E-18
   90.15650        6.8471525E-18
   90.31800        6.8474793E-18
   90.47950        6.8478238E-18
   90.64100        6.8479863E-18
   90.80250        6.8475947E-18
   90.96400        6.8464333E-18
   91.12550        6.8446660E-18
   91.28700        6.8427333E-18
   91.44850        6.8409843E-18
   91.61000        6.8393977E-18
   91.77150        6.8376652E-18
   91.93300        6.8355840E-18
   92.09450        6.8333676E-18
   92.25600        6.8315589E-18
   92.41750        6.8305907E-18
   92.57900        6.8304319E-18
   92.74050        6.8306581E-18
   92.90200        6.8308786E-18
   93.06350        6.8311065E-18
   93.22500        6.8317186E-18
   93.38650        6.8330723E-18
   93.54800        6.8351448E-18
   93.70950        6.8375279E-18
   93.87100        6.8397542E-18
   94.03250        6.8416233E-18
   94.19400        6.8432462E-18
   94.35550        6.8448228E-18
   94.51700        6.8464093E-18
   94.67850        6.8479380E-18
   94.84000        6.8494132E-18
   95.00150        6.8510056E-18
   95.16300        6.8528609E-18
   95.32450        6.8548246E-18
   95.48600        6.8564348E-18
   95.64750        6.8572764E-18
   95.80900        6.8573806E-18
   95.97050        6.8572272E-18
   96.13200        6.8572851E-18
   96.29350        6.8575097E-18
   96.45500        6.8573033E-18
   96.61650        6.8560311E-18
   96.77800        6.8536277E-18
   96.93950        6.8507309E-18
   97.10100        6.8481758E-18
   97.26250        6.8463171E-18
   97.42400        6.8448062E-18
   97.58550        6.8430464E-18
   97.74700        6.8408602E-18
   97.90850        6.8387170E-18
   98.07000        6.8372872E-18
   98.23150        6.8368045E-18
   98.39300        6.8368819E-18
   98.55450        6.8369571E-18
   98.71600        6.8368694E-18
   98.87750        6.8369625E-18
   99.03900        6.8376342E-18
   99.20050        6.8388576E-18
   99.36200        6.8402042E-18
   99.52350        6.8413263E-18
   99.68500        6.8423487E-18
   99.84650        6.8437003E-18
   100.0080        6.8455304E-18
   100.1695        6.8473577E-18
   100.3310        6.8484082E-18
   100.4925        6.8483764E-18
   100.6540        6.8478221E-18
   100.8155        6.8477183E-18
   100.9770        6.8484963E-18
   101.1385        6.8495613E-18
   101.3000        6.8498210E-18
   101.4615        6.8487862E-18
   101.6230        6.8471517E-18
   101.7845        6.8462468E-18
   101.9460        6.8468523E-18
   102.1075        6.8485261E-18
   102.2690        6.8500684E-18
   102.4305        6.8506466E-18
   102.5920        6.8504774E-18
   102.7535        6.8504596E-18
   102.9150        6.8512028E-18
   103.0765        6.8524610E-18
   103.2380        6.8534929E-18
   103.3995        6.8538804E-18
   103.5610        6.8538916E-18
   103.7225        6.8540152E-18
   103.8840        6.8542572E-18
   104.0455        6.8540487E-18
   104.2070        6.8529321E-18
   104.3685        6.8512587E-18
   104.5300        6.8500229E-18
   104.6915        6.8498980E-18
   104.8530        6.8504716E-18
   105.0145        6.8505729E-18
   105.1760        6.8494595E-18
   105.3375        6.8476733E-18
   105.4990        6.8466145E-18
   105.6605        6.8471831E-18
   105.8220        6.8488226E-18
   105.9835        6.8499662E-18
   106.1450        6.8495117E-18
   106.3065        6.8478821E-18
   106.4680        6.8466347E-18
   106.6295        6.8469941E-18
   106.7910        6.8487511E-18
   106.9525        6.8505746E-18
   107.1140        6.8513662E-18
   107.2755        6.8512450E-18
   107.4370        6.8512132E-18
   107.5985        6.8519564E-18
   107.7600        6.8530859E-18
   107.9215        6.8536182E-18
   108.0830        6.8530876E-18
   108.2445        6.8520333E-18
   108.4060        6.8513463E-18
   108.5675        6.8512343E-18
   108.7290        6.8510113E-18
   108.8905        6.8499819E-18
   109.0520        6.8484111E-18
   109.2135        6.8474354E-18
   109.3750        6.8478722E-18
   109.5365        6.8491733E-18
   109.6980        6.8497325E-18
   109.8595        6.8484074E-18
   110.0210        6.8457625E-18
   110.1825        6.8436887E-18
   110.3440        6.8436552E-18
   110.5055        6.8452740E-18
   110.6670        6.8466393E-18
   110.8285        6.8461686E-18
   110.9900        6.8441524E-18
   111.1515        6.8424757E-18
   111.3130        6.8428132E-18
   111.4745        6.8450900E-18
   111.6360        6.8476964E-18
   111.7975        6.8491398E-18
   111.9590        6.8494281E-18
   112.1205        6.8498467E-18
   112.2820        6.8515122E-18
   112.4435        6.8542589E-18
   112.6050        6.8569666E-18
   112.7665        6.8588319E-18
   112.9280        6.8601227E-18
   113.0895        6.8616005E-18
   113.2510        6.8633396E-18
   113.4125        6.8643753E-18
   113.5740        6.8636924E-18
   113.7355        6.8615207E-18
   113.8970        6.8594283E-18
   114.0585        6.8589200E-18
   114.2200        6.8599097E-18
   114.3815        6.8606997E-18
   114.5430        6.8596256E-18
   114.7045        6.8567557E-18
   114.8660        6.8539007E-18
   115.0275        6.8528572E-18
   115.1890        6.8536318E-18
   115.3505        6.8544383E-18
   115.5120        6.8534887E-18
   115.6735        6.8507797E-18
   115.8350        6.8480930E-18
   115.9965        6.8472382E-18
   116.1580        6.8483309E-18
   116.3195        6.8497950E-18
   116.4810        6.8500208E-18
   116.6425        6.8489144E-18
   116.8040        6.8478073E-18
   116.9655        6.8479222E-18
   117.1270        6.8490948E-18
   117.2885        6.8500667E-18
   117.4500        6.8499501E-18
   117.6115        6.8492048E-18
   117.7730        6.8490505E-18
   117.9345        6.8500224E-18
   118.0960        6.8513141E-18
   118.2575        6.8516863E-18
   118.4190        6.8509456E-18
   118.5805        6.8503041E-18
   118.7420        6.8511127E-18