  -27.90000        6.3751261E-18
  -27.73850        6.3773839E-18
  -27.57700        6.3807161E-18
  -27.41550        6.3838735E-18
  -27.25400        6.3865515E-18
  -27.09250        6.3893527E-18
  -26.93100        6.3928443E-18
  -26.76950        6.3967837E-18
  -26.60800        6.4003356E-18
  -26.44650        6.4029805E-18
  -26.28500        6.4051018E-18
  -26.12350        6.4075904E-18
  -25.96200        6.4108776E-18
  -25.80050        6.4144622E-18
  -25.63900        6.4174570E-18
  -25.47750        6.4195783E-18
  -25.31600        6.4214854E-18
  -25.15450        6.4240617E-18
  -24.99300        6.4274217E-18
  -24.83150        6.4307370E-18
  -24.67000        6.4331036E-18
  -24.50850        6.4345189E-18
  -24.34700        6.4359247E-18
  -24.18550        6.4382606E-18
  -24.02400        6.4415201E-18
  -23.86250        6.4447908E-18
  -23.70100        6.4472103E-18
  -23.53950        6.4488258E-18
  -23.37800        6.4504632E-18
  -23.21650        6.4527743E-18
  -23.05500        6.4555131E-18
  -22.89350        6.4578408E-18
  -22.73200        6.4593268E-18
  -22.57050        6.4605238E-18
  -22.40900        6.4624424E-18
  -22.24750        6.4654654E-18
  -22.08600        6.4688709E-18
  -21.92450        6.4714860E-18
  -21.76300        6.4727938E-18
  -21.60150        6.4733401E-18
  -21.44000        6.4740875E-18
  -21.27850        6.4754283E-18
  -21.11700        6.4769292E-18
  -20.95550        6.4780381E-18
  -20.79400        6.4789372E-18
  -20.63250        6.4805796E-18
  -20.47100        6.4838035E-18
  -20.30950        6.4884506E-18
  -20.14800        6.4934493E-18
  -19.98650        6.4977870E-18
  -19.82500        6.5013410E-18
  -19.66350        6.5047051E-18
  -19.50200        6.5082533E-18
  -19.34050        6.5115211E-18
  -19.17900        6.5135915E-18
  -19.01750        6.5140676E-18
  -18.85600        6.5135560E-18
  -18.69450        6.5131254E-18
  -18.53300        6.5132958E-18
  -18.37150        6.5136242E-18
  -18.21000        6.5133260E-18
  -18.04850        6.5122614E-18
  -17.88700        6.5112188E-18
  -17.72550        6.5111671E-18
  -17.56400        6.5122710E-18
  -17.40250        6.5137669E-18
  -17.24100        6.5148571E-18
  -17.07950        6.5156707E-18
  -16.91800        6.5172365E-18
  -16.75650        6.5204696E-18
  -16.59500        6.5252229E-18
  -16.43350        6.5303717E-18
  -16.27200        6.5348170E-18
  -16.11050        6.5383780E-18
  -15.94900        6.5417078E-18
  -15.78750        6.5454062E-18
  -15.62600        6.5493233E-18
  -15.46450        6.5527817E-18
  -15.30300        6.5554134E-18
  -15.14150        6.5576364E-18
  -14.98000        6.5601825E-18
  -14.81850        6.5631790E-18
  -14.65700        6.5658313E-18
  -14.49550        6.5671130E-18
  -14.33400        6.5667598E-18
  -14.17250        6.5655091E-18
  -14.01100        6.5643453E-18
  -13.84950        6.5635599E-18
  -13.68800        6.5626235E-18
  -13.52650        6.5609700E-18
  -13.36500        6.5588487E-18
  -13.20350        6.5573010E-18
  -13.04200        6.5572621E-18
  -12.88050        6.5586977E-18
  -12.71900        6.5606805E-18
  -12.55750        6.5623009E-18
  -12.39600        6.5634536E-18
  -12.23450        6.5646749E-18
  -12.07300        6.5662879E-18
  -11.91150        6.5678608E-18
  -11.75000        6.5686268E-18
  -11.58850        6.5684055E-18
  -11.42700        6.5679903E-18
  -11.26550        6.5685139E-18
  -11.10400        6.5704242E-18
  -10.94250        6.5731167E-18
  -10.78100        6.5756239E-18
  -10.61950        6.5776484E-18
  -10.45800        6.5798967E-18
  -10.29650        6.5833630E-18
  -10.13500        6.5883174E-18
  -9.973500        6.5940605E-18
  -9.812000        6.5996659E-18
  -9.650500        6.6048920E-18
  -9.489000        6.6102546E-18
  -9.327500        6.6161963E-18
  -9.166000        6.6222777E-18
  -9.004500        6.6272987E-18
  -8.843000        6.6302501E-18
  -8.681500        6.6311215E-18
  -8.520000        6.6307786E-18
  -8.358500        6.6300888E-18
  -8.197000        6.6292471E-18
  -8.035500        6.6279559E-18
  -7.874000        6.6261696E-18
  -7.712500        6.6245074E-18
  -7.551000        6.6238030E-18
  -7.389500        6.6242563E-18
  -7.228000        6.6251377E-18
  -7.066500        6.6254429E-18
  -6.905000        6.6248407E-18
  -6.743500        6.6239139E-18
  -6.582000        6.6234494E-18
  -6.420500        6.6235805E-18
  -6.259000        6.6237360E-18
  -6.097500        6.6234639E-18
  -5.936000        6.6232261E-18
  -5.774500        6.6242381E-18
  -5.613000        6.6274141E-18
  -5.451500        6.6324404E-18
  -5.290000        6.6378961E-18
  -5.128500        6.6423397E-18
  -4.967000        6.6453155E-18
  -4.805500        6.6473305E-18
  -4.644000        6.6489584E-18
  -4.482500        6.6500784E-18
  -4.321000        6.6500801E-18
  -4.159500        6.6487264E-18
  -3.998000        6.6466651E-18
  -3.836500        6.6449780E-18
  -3.675000        6.6442468E-18
  -3.513500        6.6441513E-18
  -3.352000        6.6440334E-18
  -3.190500        6.6438084E-18
  -3.029000        6.6442365E-18
  -2.867500        6.6462370E-18
  -2.706000        6.6499349E-18
  -2.544500        6.6544406E-18
  -2.383000        6.6585947E-18
  -2.221500        6.6618992E-18
  -2.060000        6.6646595E-18
  -1.898500        6.6672482E-18
  -1.737000        6.6693484E-18
  -1.575500        6.6700792E-18
  -1.414000        6.6688897E-18
  -1.252500        6.6662506E-18
  -1.091000        6.6633762E-18
 -0.9295000        6.6612648E-18
 -0.7680000        6.6600650E-18
 -0.6065000        6.6594036E-18
 -0.4450000        6.6592440E-18
 -0.2835000        6.6602548E-18
 -0.1220000        6.6631880E-18
  3.9500002E-02    6.6678599E-18
  0.2010000        6.6728660E-18
  0.3625000        6.6764828E-18
  0.5240000        6.6779883E-18
  0.6855000        6.6781413E-18
  0.8470000        6.6783775E-18
   1.008500        6.6795542E-18
   1.170000        6.6814604E-18
   1.331500        6.6834771E-18
   1.493000        6.6855330E-18
   1.654500        6.6882830E-18
   1.816000        6.6923382E-18
   1.977500        6.6974118E-18
   2.139000        6.7023190E-18
   2.300500        6.7058515E-18
   2.462000        6.7076527E-18
   2.623500        6.7082251E-18
   2.785000        6.7081701E-18
   2.946500        6.7075584E-18
   3.108000        6.7061381E-18
   3.269500        6.7040809E-18
   3.431000        6.7023087E-18
   3.592500        6.7019029E-18
   3.754000        6.7031656E-18
   3.915500        6.7053783E-18
   4.077000        6.7075919E-18
   4.238500        6.7096433E-18
   4.400000        6.7123002E-18
   4.561500        6.7163314E-18
   4.723000        6.7214289E-18
   4.884500        6.7261393E-18
   5.046000        6.7289360E-18
   5.207500        6.7294117E-18
   5.369000        6.7284037E-18
   5.530500        6.7269500E-18
   5.692000        6.7251715E-18
   5.853500        6.7222570E-18
   6.015000        6.7175565E-18
   6.176500        6.7116298E-18
   6.338000        6.7061509E-18
   6.499500        6.7027615E-18
   6.661000        6.7020208E-18
   6.822500        6.7033952E-18
   6.984000        6.7060963E-18
   7.145500        6.7097612E-18
   7.307000        6.7142829E-18
   7.468500        6.7191406E-18
   7.630000        6.7231851E-18
   7.791500        6.7253051E-18
   7.953000        6.7253742E-18
   8.114500        6.7244535E-18
   8.276000        6.7239481E-18
   8.437500        6.7245234E-18
   8.599000        6.7258721E-18
   8.760500        6.7274930E-18
   8.922000        6.7295423E-18
   9.083500        6.7327373E-18
   9.245000        6.7373906E-18
   9.406500        6.7426602E-18
   9.568000        6.7469495E-18
   9.729500        6.7491589E-18
   9.891000        6.7495680E-18
   10.05250        6.7494456E-18
   10.21400        6.7497839E-18
   10.37550        6.7504518E-18
   10.53700        6.7506317E-18
   10.69850        6.7500391E-18
   10.86000        6.7495696E-18
   11.02150        6.7506189E-18
   11.18300        6.7537192E-18
   11.34450        6.7579163E-18
   11.50600        6.7615638E-18
   11.66750        6.7637355E-18
   11.82900        6.7648431E-18
   11.99050        6.7659189E-18
   12.15200        6.7673859E-18
   12.31350        6.7685973E-18
   12.47500        6.7685261E-18
   12.63650        6.7667816E-18
   12.79800        6.7638753E-18
   12.95950        6.7605620E-18
   13.12100        6.7571115E-18
   13.28250        6.7533908E-18
   13.44400        6.7496342E-18
   13.60550        6.7469020E-18
   13.76700        6.7465240E-18
   13.92850        6.7489836E-18
   14.09000        6.7534293E-18
   14.25150        6.7584019E-18
   14.41300        6.7630498E-18
   14.57450        6.7675463E-18
   14.73600        6.7722766E-18
   14.89750        6.7767355E-18
   15.05900        6.7794590E-18
   15.22050        6.7792356E-18
   15.38200        6.7764406E-18
   15.54350        6.7730752E-18
   15.70500        6.7713216E-18
   15.86650        6.7719085E-18
   16.02800        6.7738151E-18
   16.18950        6.7755191E-18
   16.35100        6.7764915E-18
   16.51250        6.7774448E-18
   16.67400        6.7792129E-18
   16.83550        6.7815410E-18
   16.99700        6.7830932E-18
   17.15850        6.7826473E-18
   17.32000        6.7802146E-18
   17.48150        6.7770010E-18
   17.64300        6.7743660E-18
   17.80450        6.7729048E-18
   17.96600        6.7724912E-18
   18.12750        6.7729801E-18
   18.28900        6.7746113E-18
   18.45050        6.7776053E-18
   18.61200        6.7815249E-18
   18.77350        6.7853096E-18
   18.93500        6.7881651E-18
   19.09650        6.7903736E-18
   19.25800        6.7930177E-18
   19.41950        6.7967462E-18
   19.58100        6.8008271E-18
   19.74250        6.8035874E-18
   19.90400        6.8038984E-18
   20.06550        6.8022532E-18
   20.22700        6.8003126E-18
   20.38850        6.7993485E-18
   20.55000        6.7991624E-18
   20.71150        6.7985677E-18
   20.87300        6.7969514E-18
   21.03450        6.7952829E-18
   21.19600        6.7954703E-18
   21.35750        6.7986334E-18
   21.51900        6.8039919E-18
   21.68050        6.8094559E-18
   21.84200        6.8133209E-18
   22.00350        6.8154025E-18
   22.16500        6.8166209E-18
   22.32650        6.8176867E-18
   22.48800        6.8183398E-18
   22.64950        6.8178501E-18
   22.81100        6.8160874E-18
   22.97250        6.8139226E-18
   23.13400        6.8125499E-18
   23.29550        6.8124924E-18
   23.45700        6.8133506E-18
   23.61850        6.8144533E-18
   23.78000        6.8155700E-18
   23.94150        6.8168236E-18
   24.10300        6.8179729E-18
   24.26450        6.8181007E-18
   24.42600        6.8163442E-18
   24.58750        6.8130227E-18
   24.74900        6.8098401E-18
   24.91050        6.8086696E-18
   25.07200        6.8099662E-18
   25.23350        6.8124002E-18
   25.39500        6.8141584E-18
   25.55650        6.8146630E-18
   25.71800        6.8150244E-18
   25.87950        6.8167566E-18
   26.04100        6.8200644E-18
   26.20250        6.8234464E-18
   26.36400        6.8250569E-18
   26.52550        6.8244576E-18
   26.68700        6.8230009E-18
   26.84850        6.8224538E-18
   27.01000        6.8232888E-18
   27.17150        6.8243534E-18
   27.33300        6.8241367E-18
   27.49450        6.8222647E-18
   27.65600        6.8197476E-18
   27.81750        6.8179270E-18
   27.97900        6.8173649E-18
   28.14050        6.8177789E-18
   28.30200        6.8188609E-18
   28.46350        6.8208747E-18
   28.62500        6.8243120E-18
   28.78650        6.8290596E-18
   28.94800        6.8341447E-18
   29.10950        6.8384754E-18
   29.27100        6.8417750E-18
   29.43250        6.8445808E-18
   29.59400        6.8472373E-18
   29.75550        6.8490538E-18
   29.91700        6.8487738E-18
   30.07850        6.8460466E-18
   30.24000        6.8423470E-18
   30.40150        6.8401554E-18
   30.56300        6.8409809E-18
   30.72450        6.8440754E-18
   30.88600        6.8471058E-18
   31.04750        6.8482002E-18
   31.20900        6.8474416E-18
   31.37050        6.8464565E-18
   31.53200        6.8466099E-18
   31.69350        6.8476666E-18
   31.85500        6.8481989E-18
   32.01650        6.8472096E-18
   32.17800        6.8452244E-18
   32.33950        6.8437570E-18
   32.50100        6.8438269E-18
   32.66250        6.8451160E-18
   32.82400        6.8465293E-18
   32.98550        6.8473953E-18
   33.14700        6.8479756E-18
   33.30850        6.8488797E-18
   33.47000        6.8502123E-18
   33.63150        6.8514832E-18
   33.79300        6.8523365E-18
   33.95450        6.8531562E-18
   34.11600        6.8547155E-18
   34.27750        6.8571771E-18
   34.43900        6.8595847E-18
   34.60050        6.8606046E-18
   34.76200        6.8598514E-18
   34.92350        6.8583571E-18
   35.08500        6.8575713E-18
   35.24650        6.8578662E-18
   35.40800        6.8581797E-18
   35.56950        6.8572475E-18
   35.73100        6.8551841E-18
   35.89250        6.8537142E-18
   36.05400        6.8546927E-18
   36.21550        6.8582947E-18
   36.37700        6.8626477E-18
   36.53850        6.8653092E-18
   36.70000        6.8652281E-18
   36.86150        6.8633831E-18
   37.02300        6.8616026E-18
   37.18450        6.8608531E-18
   37.34600        6.8606844E-18
   37.50750        6.8601943E-18
   37.66900        6.8592827E-18
   37.83050        6.8588228E-18
   37.99200        6.8596831E-18
   38.15350        6.8617949E-18
   38.31500        6.8642657E-18
   38.47650        6.8663080E-18
   38.63800        6.8678842E-18
   38.79950        6.8694012E-18
   38.96100        6.8709261E-18
   39.12250        6.8719452E-18
   39.28400        6.8720333E-18
   39.44550        6.8716722E-18
   39.60700        6.8721384E-18
   39.76850        6.8743304E-18
   39.93000        6.8777276E-18
   40.09150        6.8807080E-18
   40.25300        6.8820807E-18
   40.41450        6.8823015E-18
   40.57600        6.8830361E-18
   40.73750        6.8854324E-18
   40.89900        6.8888611E-18
   41.06050        6.8914228E-18
   41.22200        6.8917454E-18
   41.38350        6.8903032E-18
   41.54500        6.8889405E-18
   41.70650        6.8890629E-18
   41.86800        6.8902652E-18
   42.02950        6.8907235E-18
   42.19100        6.8889450E-18
   42.35250        6.8851474E-18
   42.51400        6.8810008E-18
   42.67550        6.8781640E-18
   42.83700        6.8771668E-18
   42.99850        6.8775800E-18
   43.16000        6.8789419E-18
   43.32150        6.8812303E-18
   43.48300        6.8844352E-18
   43.64450        6.8879532E-18
   43.80600        6.8906933E-18
   43.96750        6.8919022E-18
   44.12900        6.8917967E-18
   44.29050        6.8912380E-18
   44.45200        6.8907441E-18
   44.61350        6.8899141E-18
   44.77500        6.8880223E-18
   44.93650        6.8852057E-18
   45.09800        6.8828797E-18
   45.25950        6.8827035E-18
   45.42100        6.8850122E-18
   45.58250        6.8883519E-18
   45.74400        6.8907181E-18
   45.90550        6.8913277E-18
   46.06700        6.8911858E-18
   46.22850        6.8919216E-18
   46.39000        6.8941091E-18
   46.55150        6.8967246E-18
   46.71300        6.8982467E-18
   46.87450        6.8982562E-18
   47.03600        6.8979294E-18
   47.19750        6.8989221E-18
   47.35900        6.9017506E-18
   47.52050        6.9052765E-18
   47.68200        6.9077410E-18
   47.84350        6.9082535E-18
   48.00500        6.9072915E-18
   48.16650        6.9059407E-18
   48.32800        6.9048711E-18
   48.48950        6.9040754E-18
   48.65100        6.9033624E-18
   48.81250        6.9027862E-18
   48.97400        6.9024860E-18
   49.13550        6.9022486E-18
   49.29700        6.9015091E-18
   49.45850        6.8999817E-18
   49.62000        6.8982876E-18
   49.78150        6.8977309E-18
   49.94300        6.8992083E-18
   50.10450        6.9022502E-18
   50.26600        6.9052996E-18
   50.42750        6.9071331E-18
   50.58900        6.9080384E-18
   50.75050        6.9094727E-18
   50.91200        6.9124456E-18
   51.07350        6.9162349E-18
   51.23500        6.9187690E-18
   51.39650        6.9183670E-18
   51.55800        6.9152241E-18
   51.71950        6.9112913E-18
   51.88100        6.9086985E-18
   52.04250        6.9081836E-18
   52.20400        6.9089032E-18
   52.36550        6.9096295E-18
   52.52700        6.9100497E-18
   52.68850        6.9108893E-18
   52.85000        6.9128869E-18
   53.01150        6.9158404E-18
   53.17300        6.9187152E-18
   53.33450        6.9205743E-18
   53.49600        6.9212696E-18
   53.65750        6.9212741E-18
   53.81900        6.9210698E-18
   53.98050        6.9208552E-18
   54.14200        6.9208002E-18
   54.30350        6.9213329E-18
   54.46500        6.9228929E-18
   54.62650        6.9252764E-18
   54.78800        6.9273345E-18
   54.94950        6.9276240E-18
   55.11100        6.9256346E-18
   55.27250        6.9224090E-18
   55.43400        6.9197604E-18
   55.59550        6.9186789E-18
   55.75700        6.9184865E-18
   55.91850        6.9176383E-18
   56.08000        6.9154049E-18
   56.24150        6.9127426E-18
   56.40300        6.9114844E-18
   56.56450        6.9126450E-18
   56.72600        6.9154839E-18
   56.88750        6.9181983E-18
   57.04900        6.9195540E-18
   57.21050        6.9199188E-18
   57.37200        6.9207385E-18
   57.53350        6.9230484E-18
   57.69500        6.9265110E-18
   57.85650        6.9298731E-18
   58.01800        6.9322177E-18
   58.17950        6.9336454E-18
   58.34100        6.9347787E-18
   58.50250        6.9358383E-18
   58.66400        6.9364020E-18
   58.82550        6.9360265E-18
   58.98700        6.9349135E-18
   59.14850        6.9338287E-18
   59.31000        6.9333824E-18
   59.47150        6.9335048E-18
   59.63300        6.9337174E-18
   59.79450        6.9338878E-18
   59.95600        6.9345355E-18
   60.11750        6.9361936E-18
   60.27900        6.9384431E-18
   60.44050        6.9398402E-18
   60.60200        6.9391181E-18
   60.76350        6.9365757E-18
   60.92500        6.9341306E-18
   61.08650        6.9337571E-18
   61.24800        6.9357514E-18
   61.40950        6.9385097E-18
   61.57100        6.9400362E-18
   61.73250        6.9397178E-18
   61.89400        6.9386681E-18
   62.05550        6.9384141E-18
   62.21700        6.9392496E-18
   62.37850        6.9399014E-18
   62.54000        6.9388170E-18
   62.70150        6.9357738E-18
   62.86300        6.9321867E-18
   63.02450        6.9298780E-18
   63.18600        6.9296386E-18
   63.34750        6.9309844E-18
   63.50900        6.9331098E-18
   63.67050        6.9357630E-18
   63.83200        6.9391247E-18
   63.99350        6.9430530E-18
   64.15500        6.9467869E-18
   64.31650        6.9495430E-18
   64.47800        6.9513082E-18
   64.63950        6.9528418E-18
   64.80100        6.9547576E-18
   64.96250        6.9566535E-18
   65.12400        6.9573541E-18
   65.28550        6.9561704E-18
   65.44700        6.9538684E-18
   65.60850        6.9521247E-18
   65.77000        6.9518418E-18
   65.93150        6.9520709E-18
   66.09300        6.9508434E-18
   66.25450        6.9472112E-18
   66.41600        6.9424268E-18
   66.57750        6.9390246E-18
   66.73900        6.9386375E-18
   66.90050        6.9406517E-18
   67.06200        6.9428983E-18
   67.22350        6.9436593E-18
   67.38500        6.9430464E-18
   67.54650        6.9425682E-18
   67.70800        6.9434864E-18
   67.86950        6.9456776E-18
   68.03100        6.9480566E-18
   68.19250        6.9498780E-18
   68.35400        6.9513967E-18
   68.51550        6.9532686E-18
   68.67700        6.9555781E-18
   68.83850        6.9577164E-18
   69.00000        6.9591673E-18
   69.16150        6.9601078E-18
   69.32300        6.9610334E-18
   69.48450        6.9618548E-18
   69.64600        6.9616430E-18
   69.80750        6.9595197E-18
   69.96900        6.9558643E-18
   70.13050        6.9525002E-18
   70.29200        6.9513943E-18
   70.45350        6.9530023E-18
   70.61500        6.9559065E-18
   70.77650        6.9582069E-18
   70.93800        6.9593385E-18
   71.09950        6.9604188E-18
   71.26100        6.9627829E-18
   71.42250        6.9662785E-18
   71.58400        6.9691464E-18
   71.74550        6.9696195E-18
   71.90700        6.9675780E-18
   72.06850        6.9646531E-18
   72.23000        6.9627134E-18
   72.39150        6.9622800E-18
   72.55300        6.9623271E-18
   72.71450        6.9615098E-18
   72.87600        6.9595089E-18
   73.03750        6.9571746E-18
   73.19900        6.9555029E-18
   73.36050        6.9546567E-18
   73.52200        6.9540776E-18
   73.68350        6.9533671E-18
   73.84500        6.9527856E-18
   74.00650        6.9527914E-18
   74.16800        6.9533117E-18
   74.32950        6.9537492E-18
   74.49100        6.9537542E-18
   74.65250        6.9538204E-18
   74.81400        6.9548817E-18
   74.97550        6.9572548E-18
   75.13700        6.9600507E-18
   75.29850        6.9618424E-18
   75.46000        6.9620459E-18
   75.62150        6.9616563E-18
   75.78300        6.9624131E-18
   75.94450        6.9650783E-18
   76.10600        6.9685194E-18
   76.26750        6.9706138E-18
   76.42900        6.9701679E-18
   76.59050        6.9679370E-18
   76.75200        6.9658071E-18
   76.91350        6.9650130E-18
   77.07500        6.9651660E-18
   77.23650        6.9649261E-18
   77.39800        6.9635067E-18
   77.55950        6.9615082E-18
   77.72100        6.9603683E-18
   77.88250        6.9610590E-18
   78.04400        6.9633098E-18
   78.20550        6.9659907E-18
   78.36700        6.9681141E-18
   78.52850        6.9693871E-18
   78.69000        6.9699140E-18
   78.85150        6.9696807E-18
   79.01300        6.9685889E-18
   79.17450        6.9669221E-18
   79.33600        6.9654754E-18
   79.49750        6.9649517E-18
   79.65900        6.9652222E-18
   79.82050        6.9653678E-18
   79.98200        6.9645853E-18
   80.14350        6.9631121E-18
   80.30500        6.9621550E-18
   80.46650        6.9627936E-18
   80.62800        6.9648393E-18
   80.78950        6.9668162E-18
   80.95100        6.9672190E-18
   81.11250        6.9659220E-18
   81.27400        6.9643264E-18
   81.43550        6.9640774E-18
   81.59700        6.9655862E-18
   81.75850        6.9677989E-18
   81.92000        6.9693416E-18
   82.08150        6.9697990E-18
   82.24300        6.9699057E-18
   82.40450        6.9706312E-18
   82.56600        6.9721697E-18
   82.72750        6.9738009E-18
   82.88900        6.9746364E-18
   83.05050        6.9744503E-18
   83.21200        6.9737802E-18
   83.37350        6.9733005E-18
   83.53500        6.9731690E-18
   83.69650        6.9730300E-18
   83.85800        6.9725593E-18
   84.01950        6.9718256E-18
   84.18100        6.9710721E-18
   84.34250        6.9703077E-18
   84.50400        6.9693234E-18
   84.66550        6.9681488E-18
   84.82700        6.9673183E-18
   84.98850        6.9675119E-18
   85.15000        6.9688403E-18
   85.31150        6.9705485E-18
   85.47300        6.9715254E-18
   85.63450        6.9712482E-18
   85.79600        6.9702904E-18
   85.95750        6.9698387E-18
   86.11900        6.9705724E-18
   86.28050        6.9719555E-18
   86.44200        6.9726884E-18
   86.60350        6.9719555E-18
   86.76500        6.9702498E-18
   86.92650        6.9689793E-18
   87.08800        6.9692721E-18
   87.24950        6.9710994E-18
   87.41100        6.9734461E-18
   87.57250        6.9752171E-18
   87.73400        6.9760277E-18
   87.89550        6.9762634E-18
   88.05700        6.9765257E-18
   88.21850        6.9770493E-18
   88.38000        6.9776266E-18
   88.54150        6.9779989E-18
   88.70300        6.9782057E-18
   88.86450        6.9785068E-18
   89.02600        6.9790411E-18
   89.18750        6.9796880E-18
   89.34900        6.9802794E-18
   89.51050        6.9808088E-18
   89.67200        6.9813059E-18
   89.83350        6.9815524E-18
   89.99500        6.9810570E-18
   90.15650        6.9794580E-18
   90.31800        6.9769781E-18
   90.47950        6.9744602E-18
   90.64100        6.9728199E-18
   90.80250        6.9723244E-18
   90.96400        6.9723434E-18
   91.12550        6.9719100E-18
   91.28700        6.9706452E-18
   91.44850        6.9691910E-18
   91.61000        6.9686360E-18
   91.77150        6.9694475E-18
   91.93300        6.9709579E-18
   92.09450        6.9719249E-18
   92.25600        6.9716412E-18
   92.41750        6.9705526E-18
   92.57900        6.9698768E-18
   92.74050        6.9705956E-18
   92.90200        6.9726942E-18
   93.06350        6.9752518E-18
   93.22500        6.9772197E-18
   93.38650        6.9781717E-18
   93.54800        6.9784091E-18
   93.70950        6.9784654E-18
   93.87100        6.9786159E-18
   94.03250        6.9788476E-18
   94.19400        6.9791189E-18
   94.35550        6.9794762E-18
   94.51700        6.9798857E-18
   94.67850        6.9801330E-18
   94.84000        6.9800313E-18
   95.00150        6.9797450E-18
   95.16300        6.9797757E-18
   95.32450        6.9805127E-18
   95.48600        6.9817567E-18
   95.64750        6.9827469E-18
   95.80900        6.9828106E-18
   95.97050        6.9821100E-18
   96.13200        6.9817030E-18
   96.29350        6.9826857E-18
   96.45500        6.9850936E-18
   96.61650        6.9876620E-18
   96.77800        6.9887803E-18
   96.93950        6.9878225E-18
   97.10100        6.9855940E-18
   97.26250        6.9835004E-18
   97.42400        6.9822944E-18
   97.58550        6.9815773E-18
   97.74700        6.9804382E-18
   97.90850        6.9785233E-18
   98.07000        6.9764901E-18
   98.23150        6.9754727E-18
   98.39300        6.9760922E-18
   98.55450        6.9779757E-18
   98.71600        6.9801628E-18
   98.87750        6.9818957E-18
   99.03900        6.9830033E-18
   99.20050        6.9836270E-18
   99.36200        6.9838479E-18
   99.52350        6.9837130E-18
   99.68500        6.9835426E-18
   99.84650        6.9839149E-18
   100.0080        6.9851705E-18
   100.1695        6.9869399E-18
   100.3310        6.9883122E-18
   100.4925        6.9885967E-18
   100.6540        6.9879441E-18
   100.8155        6.9871591E-18
   100.9770        6.9868026E-18
   101.1385        6.9864775E-18
   101.3000        6.9851134E-18
   101.4615        6.9820984E-18
   101.6230        6.9781626E-18
   101.7845        6.9750053E-18
   101.9460        6.9738812E-18
   102.1075        6.9745115E-18
   102.2690        6.9753858E-18
   102.4305        6.9751774E-18
   102.5920        6.9739068E-18
   102.7535        6.9727976E-18
   102.9150        6.9730937E-18
   103.0765        6.9749912E-18
   103.2380        6.9776142E-18
   103.3995        6.9798981E-18
   103.5610        6.9814474E-18
   103.7225        6.9826063E-18
   103.8840        6.9838371E-18
   104.0455        6.9851714E-18
   104.2070        6.9862698E-18
   104.3685        6.9868720E-18
   104.5300        6.9869829E-18
   104.6915        6.9866297E-18
   104.8530        6.9856619E-18
   105.0145        6.9840439E-18
   105.1760        6.9823383E-18
   105.3375        6.9816914E-18
   105.4990        6.9830546E-18
   105.6605        6.9862624E-18
   105.8220        6.9899111E-18
   105.9835        6.9923000E-18
   106.1450        6.9927128E-18
   106.3065        6.9918864E-18
   106.4680        6.9912238E-18
   106.6295        6.9914554E-18
   106.7910        6.9920436E-18
   106.9525        6.9918988E-18
   107.1140        6.9906357E-18
   107.2755        6.9890864E-18
   107.4370        6.9885280E-18
   107.5985        6.9894504E-18
   107.7600        6.9910873E-18
   107.9215        6.9920965E-18
   108.0830        6.9916722E-18
   108.2445        6.9900476E-18
   108.4060        6.9880607E-18
   108.5675        6.9863393E-18
   108.7290        6.9849149E-18
   108.8905        6.9835244E-18
   109.0520        6.9821331E-18
   109.2135        6.9810627E-18
   109.3750        6.9806194E-18
   109.5365        6.9807426E-18
   109.6980        6.9811297E-18
   109.8595        6.9816600E-18
   110.0210        6.9825260E-18
   110.1825        6.9838735E-18
   110.3440        6.9854112E-18
   110.5055        6.9865552E-18
   110.6670        6.9870424E-18
   110.8285        6.9873435E-18
   110.9900        6.9883072E-18
   111.1515        6.9902693E-18
   111.3130        6.9924729E-18
   111.4745        6.9934705E-18
   111.6360        6.9922859E-18
   111.7975        6.9893188E-18
   111.9590        6.9861160E-18
   112.1205        6.9841539E-18
   112.2820        6.9837445E-18
   112.4435        6.9840662E-18
   112.6050        6.9842077E-18
   112.7665        6.9841200E-18
   112.9280        6.9845692E-18
   113.0895        6.9862260E-18
   113.2510        6.9888680E-18
   113.4125        6.9914414E-18
   113.5740        6.9928616E-18
   113.7355        6.9927897E-18
   113.8970        6.9917400E-18
   114.0585        6.9905555E-18
   114.2200        6.9898251E-18
   114.3815        6.9897341E-18
   114.5430        6.9902751E-18
   114.7045        6.9913884E-18
   114.8660        6.9928046E-18
   115.0275        6.9939188E-18
   115.1890        6.9940470E-18
   115.3505        6.9929791E-18
   115.5120        6.9912032E-18
   115.6735        6.9894743E-18
   115.8350        6.9881062E-18
   115.9965        6.9867083E-18
   116.1580        6.9847007E-18
   116.3195        6.9821149E-18
   116.4810        6.9798766E-18
   116.6425        6.9791817E-18
   116.8040        6.9804680E-18
   116.9655        6.9829272E-18
   117.1270        6.9851043E-18
   117.2885        6.9860862E-18
   117.4500        6.9861946E-18
   117.6115        6.9865453E-18
   117.7730        6.9879441E-18
   117.9345        6.9901841E-18
   118.0960        6.9923405E-18
   118.2575        6.9936243E-18
   118.4190        6.9939279E-18
   118.5805        6.9936284E-18
   118.7420        6.9929990E-18