  -27.90000       -1.5471834E-18
  -27.73850       -1.5499975E-18
  -27.57700       -1.5539176E-18
  -27.41550       -1.5568176E-18
  -27.25400       -1.5576614E-18
  -27.09250       -1.5571855E-18
  -26.93100       -1.5572637E-18
  -26.76950       -1.5594361E-18
  -26.60800       -1.5637021E-18
  -26.44650       -1.5684738E-18
  -26.28500       -1.5717173E-18
  -26.12350       -1.5724372E-18
  -25.96200       -1.5714098E-18
  -25.80050       -1.5706142E-18
  -25.63900       -1.5717908E-18
  -25.47750       -1.5751906E-18
  -25.31600       -1.5794179E-18
  -25.15450       -1.5824871E-18
  -24.99300       -1.5832978E-18
  -24.83150       -1.5824411E-18
  -24.67000       -1.5817490E-18
  -24.50850       -1.5829230E-18
  -24.34700       -1.5862587E-18
  -24.18550       -1.5904273E-18
  -24.02400       -1.5934599E-18
  -23.86250       -1.5942158E-18
  -23.70100       -1.5932354E-18
  -23.53950       -1.5923400E-18
  -23.37800       -1.5932763E-18
  -23.21650       -1.5964147E-18
  -23.05500       -1.6004682E-18
  -22.89350       -1.6034516E-18
  -22.73200       -1.6041560E-18
  -22.57050       -1.6030442E-18
  -22.40900       -1.6018977E-18
  -22.24750       -1.6024852E-18
  -22.08600       -1.6052483E-18
  -21.92450       -1.6089815E-18
  -21.76300       -1.6117514E-18
  -21.60150       -1.6123536E-18
  -21.44000       -1.6112315E-18
  -21.27850       -1.6101668E-18
  -21.11700       -1.6109691E-18
  -20.95550       -1.6141339E-18
  -20.79400       -1.6184561E-18
  -20.63250       -1.6218870E-18
  -20.47100       -1.6230075E-18
  -20.30950       -1.6220467E-18
  -20.14800       -1.6206893E-18
  -19.98650       -1.6208175E-18
  -19.82500       -1.6231117E-18
  -19.66350       -1.6265452E-18
  -19.50200       -1.6291483E-18
  -19.34050       -1.6294932E-18
  -19.17900       -1.6277922E-18
  -19.01750       -1.6257903E-18
  -18.85600       -1.6255097E-18
  -18.69450       -1.6277771E-18
  -18.53300       -1.6316231E-18
  -18.37150       -1.6350071E-18
  -18.21000       -1.6363220E-18
  -18.04850       -1.6355569E-18
  -17.88700       -1.6342593E-18
  -17.72550       -1.6343441E-18
  -17.56400       -1.6366438E-18
  -17.40250       -1.6402855E-18
  -17.24100       -1.6433404E-18
  -17.07950       -1.6442511E-18
  -16.91800       -1.6429779E-18
  -16.75650       -1.6410279E-18
  -16.59500       -1.6403642E-18
  -16.43350       -1.6419995E-18
  -16.27200       -1.6452921E-18
  -16.11050       -1.6484554E-18
  -15.94900       -1.6499012E-18
  -15.78750       -1.6494424E-18
  -15.62600       -1.6484644E-18
  -15.46450       -1.6489285E-18
  -15.30300       -1.6519228E-18
  -15.14150       -1.6568307E-18
  -14.98000       -1.6617437E-18
  -14.81850       -1.6648344E-18
  -14.65700       -1.6656809E-18
  -14.49550       -1.6655429E-18
  -14.33400       -1.6663658E-18
  -14.17250       -1.6692561E-18
  -14.01100       -1.6735846E-18
  -13.84950       -1.6773949E-18
  -13.68800       -1.6788205E-18
  -13.52650       -1.6774433E-18
  -13.36500       -1.6745781E-18
  -13.20350       -1.6722954E-18
  -13.04200       -1.6719163E-18
  -12.88050       -1.6731061E-18
  -12.71900       -1.6742164E-18
  -12.55750       -1.6735976E-18
  -12.39600       -1.6708836E-18
  -12.23450       -1.6673167E-18
  -12.07300       -1.6648807E-18
  -11.91150       -1.6648860E-18
  -11.75000       -1.6670347E-18
  -11.58850       -1.6696373E-18
  -11.42700       -1.6708339E-18
  -11.26550       -1.6699311E-18
  -11.10400       -1.6678878E-18
  -10.94250       -1.6665932E-18
  -10.78100       -1.6674642E-18
  -10.61950       -1.6703980E-18
  -10.45800       -1.6738637E-18
  -10.29650       -1.6760720E-18
  -10.13500       -1.6763498E-18
  -9.973500       -1.6756807E-18
  -9.812000       -1.6759803E-18
  -9.650500       -1.6786316E-18
  -9.489000       -1.6833927E-18
  -9.327500       -1.6885035E-18
  -9.166000       -1.6919316E-18
  -9.004500       -1.6928254E-18
  -8.843000       -1.6920948E-18
  -8.681500       -1.6917019E-18
  -8.520000       -1.6931975E-18
  -8.358500       -1.6965908E-18
  -8.197000       -1.7003784E-18
  -8.035500       -1.7026845E-18
  -7.874000       -1.7026654E-18
  -7.712500       -1.7011434E-18
  -7.551000       -1.7000108E-18
  -7.389500       -1.7008530E-18
  -7.228000       -1.7037837E-18
  -7.066500       -1.7073399E-18
  -6.905000       -1.7095150E-18
  -6.743500       -1.7092035E-18
  -6.582000       -1.7070134E-18
  -6.420500       -1.7048647E-18
  -6.259000       -1.7046353E-18
  -6.097500       -1.7068491E-18
  -5.936000       -1.7103441E-18
  -5.774500       -1.7131696E-18
  -5.613000       -1.7140472E-18
  -5.451500       -1.7133110E-18
  -5.290000       -1.7126264E-18
  -5.128500       -1.7136878E-18
  -4.967000       -1.7168728E-18
  -4.805500       -1.7208709E-18
  -4.644000       -1.7235776E-18
  -4.482500       -1.7235990E-18
  -4.321000       -1.7212465E-18
  -4.159500       -1.7183038E-18
  -3.998000       -1.7167442E-18
  -3.836500       -1.7173621E-18
  -3.675000       -1.7193225E-18
  -3.513500       -1.7209318E-18
  -3.352000       -1.7210341E-18
  -3.190500       -1.7199609E-18
  -3.029000       -1.7193240E-18
  -2.867500       -1.7207866E-18
  -2.706000       -1.7247374E-18
  -2.544500       -1.7298620E-18
  -2.383000       -1.7339539E-18
  -2.221500       -1.7354154E-18
  -2.060000       -1.7343430E-18
  -1.898500       -1.7324236E-18
  -1.737000       -1.7316887E-18
  -1.575500       -1.7330505E-18
  -1.414000       -1.7356764E-18
  -1.252500       -1.7376637E-18
  -1.091000       -1.7375150E-18
 -0.9295000       -1.7353135E-18
 -0.7680000       -1.7327167E-18
 -0.6065000       -1.7317529E-18
 -0.4450000       -1.7332928E-18
 -0.2835000       -1.7363371E-18
 -0.1220000       -1.7386774E-18
  3.9500002E-02   -1.7384764E-18
  0.2010000       -1.7356371E-18
  0.3625000       -1.7319329E-18
  0.5240000       -1.7297881E-18
  0.6855000       -1.7305803E-18
  0.8470000       -1.7337043E-18
   1.008500       -1.7370880E-18
   1.170000       -1.7387657E-18
   1.331500       -1.7383329E-18
   1.493000       -1.7371914E-18
   1.654500       -1.7374124E-18
   1.816000       -1.7400975E-18
   1.977500       -1.7444799E-18
   2.139000       -1.7484443E-18
   2.300500       -1.7500687E-18
   2.462000       -1.7490420E-18
   2.623500       -1.7469027E-18
   2.785000       -1.7459431E-18
   2.946500       -1.7475849E-18
   3.108000       -1.7514168E-18
   3.269500       -1.7555742E-18
   3.431000       -1.7581492E-18
   3.592500       -1.7585920E-18
   3.754000       -1.7580690E-18
   3.915500       -1.7585227E-18
   4.077000       -1.7611201E-18
   4.238500       -1.7652504E-18
   4.400000       -1.7688525E-18
   4.561500       -1.7698667E-18
   4.723000       -1.7677623E-18
   4.884500       -1.7639945E-18
   5.046000       -1.7610229E-18
   5.207500       -1.7605863E-18
   5.369000       -1.7625174E-18
   5.530500       -1.7649722E-18
   5.692000       -1.7659047E-18
   5.853500       -1.7646660E-18
   6.015000       -1.7625097E-18
   6.176500       -1.7616302E-18
   6.338000       -1.7634688E-18
   6.499500       -1.7675747E-18
   6.661000       -1.7718711E-18
   6.822500       -1.7741180E-18
   6.984000       -1.7734916E-18
   7.145500       -1.7711333E-18
   7.307000       -1.7692876E-18
   7.468500       -1.7696776E-18
   7.630000       -1.7722913E-18
   7.791500       -1.7754325E-18
   7.953000       -1.7769854E-18
   8.114500       -1.7759524E-18
   8.276000       -1.7731706E-18
   8.437500       -1.7706897E-18
   8.599000       -1.7702815E-18
   8.760500       -1.7721584E-18
   8.922000       -1.7748560E-18
   9.083500       -1.7763772E-18
   9.245000       -1.7757566E-18
   9.406500       -1.7738748E-18
   9.568000       -1.7728722E-18
   9.729500       -1.7745830E-18
   9.891000       -1.7791435E-18
   10.05250       -1.7848239E-18
   10.21400       -1.7892388E-18
   10.37550       -1.7910328E-18
   10.53700       -1.7908022E-18
   10.69850       -1.7905584E-18
   10.86000       -1.7921457E-18
   11.02150       -1.7958130E-18
   11.18300       -1.8000071E-18
   11.34450       -1.8025380E-18
   11.50600       -1.8022373E-18
   11.66750       -1.7998606E-18
   11.82900       -1.7975824E-18
   11.99050       -1.7974509E-18
   12.15200       -1.7999258E-18
   12.31350       -1.8035554E-18
   12.47500       -1.8060256E-18
   12.63650       -1.8058248E-18
   12.79800       -1.8033257E-18
   12.95950       -1.8005085E-18
   13.12100       -1.7995393E-18
   13.28250       -1.8012089E-18
   13.44400       -1.8043655E-18
   13.60550       -1.8067391E-18
   13.76700       -1.8065831E-18
   13.92850       -1.8039542E-18
   14.09000       -1.8006909E-18
   14.25150       -1.7990860E-18
   14.41300       -1.8002095E-18
   14.57450       -1.8031272E-18
   14.73600       -1.8056042E-18
   14.89750       -1.8057878E-18
   15.05900       -1.8036249E-18
   15.22050       -1.8009356E-18
   15.38200       -1.8000763E-18
   15.54350       -1.8021714E-18
   15.70500       -1.8062531E-18
   15.86650       -1.8099721E-18
   16.02800       -1.8113545E-18
   16.18950       -1.8102604E-18
   16.35100       -1.8084309E-18
   16.51250       -1.8080989E-18
   16.67400       -1.8102215E-18
   16.83550       -1.8136905E-18
   16.99700       -1.8161121E-18
   17.15850       -1.8155804E-18
   17.32000       -1.8121265E-18
   17.48150       -1.8077701E-18
   17.64300       -1.8051304E-18
   17.80450       -1.8056135E-18
   17.96600       -1.8084865E-18
   18.12750       -1.8114929E-18
   18.28900       -1.8125525E-18
   18.45050       -1.8113156E-18
   18.61200       -1.8094570E-18
   18.77350       -1.8094729E-18
   18.93500       -1.8128151E-18
   19.09650       -1.8187036E-18
   19.25800       -1.8245218E-18
   19.41950       -1.8275836E-18
   19.58100       -1.8270306E-18
   19.74250       -1.8244635E-18
   19.90400       -1.8228010E-18
   20.06550       -1.8241620E-18
   20.22700       -1.8283103E-18
   20.38850       -1.8328407E-18
   20.55000       -1.8349945E-18
   20.71150       -1.8337589E-18
   20.87300       -1.8306450E-18
   21.03450       -1.8285578E-18
   21.19600       -1.8296162E-18
   21.35750       -1.8335958E-18
   21.51900       -1.8381494E-18
   21.68050       -1.8406100E-18
   21.84200       -1.8399841E-18
   22.00350       -1.8376549E-18
   22.16500       -1.8363143E-18
   22.32650       -1.8379515E-18
   22.48800       -1.8423910E-18
   22.64950       -1.8474388E-18
   22.81100       -1.8504798E-18
   22.97250       -1.8503613E-18
   23.13400       -1.8482000E-18
   23.29550       -1.8465351E-18
   23.45700       -1.8474504E-18
   23.61850       -1.8510027E-18
   23.78000       -1.8551324E-18
   23.94150       -1.8571574E-18
   24.10300       -1.8558204E-18
   24.26450       -1.8523508E-18
   24.42600       -1.8496718E-18
   24.58750       -1.8502620E-18
   24.74900       -1.8542405E-18
   24.91050       -1.8591623E-18
   25.07200       -1.8617509E-18
   25.23350       -1.8603029E-18
   25.39500       -1.8559410E-18
   25.55650       -1.8517443E-18
   25.71800       -1.8503923E-18
   25.87950       -1.8521159E-18
   26.04100       -1.8545214E-18
   26.20250       -1.8544192E-18
   26.36400       -1.8502597E-18
   26.52550       -1.8433631E-18
   26.68700       -1.8370501E-18
   26.84850       -1.8343586E-18
   27.01000       -1.8360124E-18
   27.17150       -1.8400488E-18
   27.33300       -1.8433236E-18
   27.49450       -1.8437926E-18
   27.65600       -1.8419466E-18
   27.81750       -1.8404014E-18
   27.97900       -1.8419325E-18
   28.14050       -1.8473540E-18
   28.30200       -1.8547712E-18
   28.46350       -1.8607984E-18
   28.62500       -1.8629253E-18
   28.78650       -1.8613377E-18
   28.94800       -1.8588049E-18
   29.10950       -1.8586269E-18
   29.27100       -1.8621161E-18
   29.43250       -1.8675408E-18
   29.59400       -1.8714076E-18
   29.75550       -1.8711597E-18
   29.91700       -1.8672105E-18
   30.07850       -1.8627222E-18
   30.24000       -1.8612618E-18
   30.40150       -1.8641251E-18
   30.56300       -1.8693879E-18
   30.72450       -1.8734106E-18
   30.88600       -1.8736443E-18
   31.04750       -1.8705873E-18
   31.20900       -1.8674132E-18
   31.37050       -1.8675705E-18
   31.53200       -1.8721746E-18
   31.69350       -1.8791029E-18
   31.85500       -1.8844303E-18
   32.01650       -1.8851545E-18
   32.17800       -1.8812753E-18
   32.33950       -1.8757660E-18
   32.50100       -1.8724511E-18
   32.66250       -1.8732731E-18
   32.82400       -1.8769096E-18
   32.98550       -1.8797677E-18
   33.14700       -1.8786996E-18
   33.30850       -1.8734843E-18
   33.47000       -1.8672186E-18
   33.63150       -1.8642229E-18
   33.79300       -1.8669090E-18
   33.95450       -1.8739134E-18
   34.11600       -1.8809928E-18
   34.27750       -1.8841001E-18
   34.43900       -1.8823690E-18
   34.60050       -1.8787060E-18
   34.76200       -1.8775002E-18
   34.92350       -1.8811944E-18
   35.08500       -1.8883650E-18
   35.24650       -1.8947790E-18
   35.40800       -1.8966315E-18
   35.56950       -1.8934648E-18
   35.73100       -1.8885416E-18
   35.89250       -1.8863835E-18
   36.05400       -1.8893552E-18
   36.21550       -1.8958791E-18
   36.37700       -1.9016111E-18
   36.53850       -1.9026618E-18
   36.70000       -1.8984639E-18
   36.86150       -1.8921750E-18
   37.02300       -1.8883464E-18
   37.18450       -1.8895626E-18
   37.34600       -1.8945044E-18
   37.50750       -1.8988911E-18
   37.66900       -1.8986471E-18
   37.83050       -1.8930119E-18
   37.99200       -1.8852581E-18
   38.15350       -1.8804022E-18
   38.31500       -1.8815247E-18
   38.47650       -1.8874096E-18
   38.63800       -1.8933323E-18
   38.79950       -1.8945261E-18
   38.96100       -1.8898068E-18
   39.12250       -1.8826176E-18
   39.28400       -1.8785987E-18
   39.44550       -1.8814345E-18
   39.60700       -1.8901005E-18
   39.76850       -1.8996273E-18
   39.93000       -1.9048305E-18
   40.09150       -1.9041702E-18
   40.25300       -1.9008195E-18
   40.41450       -1.9001387E-18
   40.57600       -1.9054755E-18
   40.73750       -1.9154631E-18
   40.89900       -1.9248613E-18
   41.06050       -1.9283034E-18
   41.22200       -1.9241582E-18
   41.38350       -1.9156506E-18
   41.54500       -1.9084570E-18
   41.70650       -1.9065978E-18
   41.86800       -1.9096482E-18
   42.02950       -1.9132853E-18
   42.19100       -1.9127141E-18
   42.35250       -1.9064396E-18
   42.51400       -1.8975765E-18
   42.67550       -1.8916771E-18
   42.83700       -1.8926341E-18
   42.99850       -1.8996850E-18
   43.16000       -1.9078056E-18
   43.32150       -1.9112976E-18
   43.48300       -1.9079523E-18
   43.64450       -1.9006964E-18
   43.80600       -1.8954157E-18
   43.96750       -1.8965177E-18
   44.12900       -1.9035467E-18
   44.29050       -1.9114529E-18
   44.45200       -1.9143997E-18
   44.61350       -1.9102481E-18
   44.77500       -1.9022917E-18
   44.93650       -1.8968602E-18
   45.09800       -1.8985673E-18
   45.25950       -1.9067965E-18
   45.42100       -1.9160938E-18
   45.58250       -1.9201943E-18
   45.74400       -1.9166815E-18
   45.90550       -1.9087933E-18
   46.06700       -1.9030355E-18
   46.22850       -1.9043759E-18
   46.39000       -1.9125994E-18
   46.55150       -1.9225148E-18
   46.71300       -1.9278170E-18
   46.87450       -1.9257418E-18
   47.03600       -1.9190741E-18
   47.19750       -1.9140614E-18
   47.35900       -1.9157542E-18
   47.52050       -1.9241873E-18
   47.68200       -1.9342382E-18
   47.84350       -1.9393262E-18
   48.00500       -1.9362733E-18
   48.16650       -1.9277333E-18
   48.32800       -1.9203136E-18
   48.48950       -1.9197321E-18
   48.65100       -1.9265655E-18
   48.81250       -1.9358043E-18
   48.97400       -1.9406168E-18
   49.13550       -1.9375511E-18
   49.29700       -1.9292383E-18
   49.45850       -1.9224668E-18
   49.62000       -1.9229916E-18
   49.78150       -1.9310157E-18
   49.94300       -1.9408393E-18
   50.10450       -1.9450277E-18
   50.26600       -1.9399757E-18
   50.42750       -1.9286560E-18
   50.58900       -1.9184684E-18
   50.75050       -1.9157873E-18
   50.91200       -1.9212990E-18
   51.07350       -1.9296312E-18
   51.23500       -1.9335454E-18
   51.39650       -1.9295237E-18
   51.55800       -1.9205486E-18
   51.71950       -1.9139731E-18
   51.88100       -1.9160700E-18
   52.04250       -1.9272955E-18
   52.20400       -1.9417699E-18
   52.36550       -1.9513850E-18
   52.52700       -1.9515728E-18
   52.68850       -1.9445227E-18
   52.85000       -1.9374576E-18
   53.01150       -1.9371846E-18
   53.17300       -1.9449351E-18
   53.33450       -1.9553625E-18
   53.49600       -1.9605082E-18
   53.65750       -1.9558311E-18
   53.81900       -1.9437884E-18
   53.98050       -1.9322106E-18
   54.14200       -1.9285737E-18
   54.30350       -1.9344297E-18
   54.46500       -1.9442179E-18
   54.62650       -1.9494647E-18
   54.78800       -1.9452389E-18
   54.94950       -1.9339568E-18
   55.11100       -1.9235998E-18
   55.27250       -1.9216845E-18
   55.43400       -1.9295717E-18
   55.59550       -1.9414407E-18
   55.75700       -1.9487056E-18
   55.91850       -1.9465229E-18
   56.08000       -1.9374665E-18
   56.24150       -1.9295735E-18
   56.40300       -1.9302324E-18
   56.56450       -1.9405301E-18
   56.72600       -1.9543087E-18
   56.88750       -1.9626366E-18
   57.04900       -1.9603664E-18
   57.21050       -1.9499118E-18
   57.37200       -1.9394577E-18
   57.53350       -1.9369203E-18
   57.69500       -1.9440876E-18
   57.85650       -1.9553081E-18
   58.01800       -1.9617519E-18
   58.17950       -1.9581313E-18
   58.34100       -1.9468626E-18
   58.50250       -1.9364720E-18
   58.66400       -1.9353324E-18
   58.82550       -1.9453425E-18
   58.98700       -1.9603180E-18
   59.14850       -1.9703965E-18
   59.31000       -1.9692741E-18
   59.47150       -1.9588671E-18
   59.63300       -1.9478329E-18
   59.79450       -1.9449978E-18
   59.95600       -1.9526612E-18
   60.11750       -1.9648774E-18
   60.27900       -1.9720476E-18
   60.44050       -1.9683143E-18
   60.60200       -1.9561268E-18
   60.76350       -1.9445048E-18
   60.92500       -1.9423092E-18
   61.08650       -1.9515914E-18
   61.24800       -1.9660274E-18
   61.40950       -1.9755972E-18
   61.57100       -1.9739801E-18
   61.73250       -1.9631159E-18
   61.89400       -1.9515774E-18
   62.05550       -1.9480436E-18
   62.21700       -1.9547829E-18
   62.37850       -1.9659786E-18
   62.54000       -1.9721289E-18
   62.70150       -1.9672497E-18
   62.86300       -1.9535429E-18
   63.02450       -1.9400109E-18
   63.18600       -1.9359474E-18
   63.34750       -1.9440907E-18
   63.50900       -1.9585561E-18
   63.67050       -1.9691698E-18
   63.83200       -1.9690431E-18
   63.99350       -1.9597453E-18
   64.15500       -1.9501472E-18
   64.31650       -1.9496999E-18
   64.47800       -1.9611542E-18
   64.63950       -1.9782616E-18
   64.80100       -1.9903064E-18
   64.96250       -1.9901145E-18
   65.12400       -1.9794635E-18
   65.28550       -1.9677343E-18
   65.44700       -1.9648009E-18
   65.60850       -1.9735493E-18
   65.77000       -1.9876846E-18
   65.93150       -1.9964589E-18
   66.09300       -1.9927457E-18
   66.25450       -1.9783869E-18
   66.41600       -1.9628245E-18
   66.57750       -1.9560853E-18
   66.73900       -1.9614088E-18
   66.90050       -1.9730135E-18
   67.06200       -1.9805998E-18
   67.22350       -1.9771606E-18
   67.38500       -1.9643021E-18
   67.54650       -1.9511503E-18
   67.70800       -1.9476526E-18
   67.86950       -1.9571889E-18
   68.03100       -1.9739627E-18
   68.19250       -1.9871594E-18
   68.35400       -1.9888654E-18
   68.51550       -1.9798818E-18
   68.67700       -1.9690549E-18
   68.83850       -1.9665535E-18
   69.00000       -1.9760902E-18
   69.16150       -1.9919485E-18
   69.32300       -2.0031548E-18
   69.48450       -2.0017531E-18
   69.64600       -1.9889490E-18
   69.80750       -1.9743794E-18
   69.96900       -1.9689653E-18
   70.13050       -1.9767119E-18
   70.29200       -1.9917198E-18
   70.45350       -2.0026758E-18
   70.61500       -2.0014106E-18
   70.77650       -1.9890242E-18
   70.93800       -1.9749895E-18
   71.09950       -1.9699581E-18
   71.26100       -1.9777301E-18
   71.42250       -1.9923884E-18
   71.58400       -2.0027302E-18
   71.74550       -2.0006312E-18
   71.90700       -1.9871004E-18
   72.06850       -1.9715571E-18
   72.23000       -1.9649140E-18
   72.39150       -1.9715902E-18
   72.55300       -1.9863049E-18
   72.71450       -1.9980105E-18
   72.87600       -1.9980829E-18
   73.03750       -1.9867677E-18
   73.19900       -1.9730652E-18
   73.36050       -1.9680405E-18
   73.52200       -1.9764703E-18
   73.68350       -1.9930844E-18
   73.84500       -2.0063245E-18
   74.00650       -2.0069079E-18
   74.16800       -1.9947959E-18
   74.32950       -1.9792712E-18
   74.49100       -1.9719713E-18
   74.65250       -1.9780897E-18
   74.81400       -1.9924277E-18
   74.97550       -2.0033661E-18
   75.13700       -2.0017643E-18
   75.29850       -1.9880004E-18
   75.46000       -1.9717777E-18
   75.62150       -1.9648730E-18
   75.78300       -1.9723530E-18
   75.94450       -1.9888724E-18
   76.10600       -2.0027763E-18
   76.26750       -2.0048585E-18
   76.42900       -1.9951998E-18
   76.59050       -1.9830125E-18
   76.75200       -1.9796570E-18
   76.91350       -1.9900650E-18
   77.07500       -2.0089562E-18
   77.23650       -2.0246308E-18
   77.39800       -2.0275239E-18
   77.55950       -2.0172106E-18
   77.72100       -2.0026919E-18
   77.88250       -1.9957014E-18
   78.04400       -2.0019340E-18
   78.20550       -2.0166963E-18
   78.36700       -2.0283215E-18
   78.52850       -2.0269186E-18
   78.69000       -2.0119419E-18
   78.85150       -1.9928435E-18
   79.01300       -1.9821886E-18
   79.17450       -1.9863489E-18
   79.33600       -2.0007652E-18
   79.49750       -2.0134145E-18
   79.65900       -2.0139257E-18
   79.82050       -2.0014938E-18
   79.98200       -1.9855689E-18
   80.14350       -1.9787401E-18
   80.30500       -1.9872034E-18
   80.46650       -2.0060286E-18
   80.62800       -2.0227999E-18
   80.78950       -2.0268442E-18
   80.95100       -2.0170853E-18
   81.11250       -2.0026766E-18
   81.27400       -1.9960085E-18
   81.43550       -2.0033549E-18
   81.59700       -2.0201459E-18
   81.75850       -2.0343690E-18
   81.92000       -2.0355507E-18
   82.08150       -2.0226055E-18
   82.24300       -2.0047177E-18
   82.40450       -1.9946131E-18
   82.56600       -1.9992014E-18
   82.72750       -2.0145252E-18
   82.88900       -2.0287446E-18
   83.05050       -2.0309950E-18
   83.21200       -2.0195577E-18
   83.37350       -2.0032143E-18
   83.53500       -1.9946747E-18
   83.69650       -2.0009507E-18
   83.85800       -2.0179299E-18
   84.01950       -2.0333303E-18
   84.18100       -2.0358774E-18
   84.34250       -2.0238274E-18
   84.50400       -2.0063799E-18
   84.66550       -1.9968419E-18
   84.82700       -2.0026485E-18
   84.98850       -2.0197687E-18
   85.15000       -2.0357676E-18
   85.31150       -2.0392049E-18
   85.47300       -2.0282506E-18
   85.63450       -2.0119950E-18
   85.79600       -2.0035084E-18
   85.95750       -2.0099302E-18
   86.11900       -2.0270450E-18
   86.28050       -2.0423610E-18
   86.44200       -2.0443796E-18
   86.60350       -2.0311345E-18
   86.76500       -2.0116623E-18
   86.92650       -1.9993237E-18
   87.08800       -2.0019462E-18
   87.24950       -2.0161303E-18
   87.41100       -2.0299159E-18
   87.57250       -2.0318219E-18
   87.73400       -2.0195381E-18
   87.89550       -2.0018000E-18
   88.05700       -1.9919942E-18
   88.21850       -1.9981700E-18
   88.38000       -2.0169072E-18
   88.54150       -2.0357107E-18
   88.70300       -2.0422434E-18
   88.86450       -2.0335181E-18
   89.02600       -2.0180905E-18
   89.18750       -2.0095611E-18
   89.34900       -2.0162505E-18
   89.51050       -2.0348467E-18
   89.67200       -2.0528394E-18
   89.83350       -2.0579282E-18
   89.99500       -2.0473076E-18
   90.15650       -2.0297858E-18
   90.31800       -2.0191195E-18
   90.47950       -2.0236171E-18
   90.64100       -2.0398907E-18
   90.80250       -2.0554404E-18
   90.96400       -2.0580742E-18
   91.12550       -2.0450674E-18
   91.28700       -2.0252277E-18
   91.44850       -2.0123832E-18
   91.61000       -2.0151737E-18
   91.77150       -2.0307375E-18
   91.93300       -2.0469707E-18
   92.09450       -2.0516457E-18
   92.25600       -2.0415738E-18
   92.41750       -2.0249911E-18
   92.57900       -2.0153801E-18
   92.74050       -2.0213341E-18
   92.90200       -2.0399978E-18
   93.06350       -2.0589896E-18
   93.22500       -2.0654495E-18
   93.38650       -2.0555343E-18
   93.54800       -2.0372660E-18
   93.70950       -2.0245388E-18
   93.87100       -2.0267331E-18
   94.03250       -2.0417233E-18
   94.19400       -2.0575698E-18
   94.35550       -2.0616248E-18
   94.51700       -2.0501798E-18
   94.67850       -2.0313707E-18
   94.84000       -2.0191295E-18
   95.00150       -2.0227229E-18
   95.16300       -2.0397534E-18
   95.32450       -2.0579145E-18
   95.48600       -2.0641775E-18
   95.64750       -2.0544706E-18
   95.80900       -2.0365799E-18
   95.97050       -2.0241593E-18
   96.13200       -2.0264324E-18
   96.29350       -2.0413260E-18
   96.45500       -2.0571388E-18
   96.61650       -2.0614327E-18
   96.77800       -2.0504796E-18
   96.93950       -2.0321822E-18
   97.10100       -2.0202575E-18
   97.26250       -2.0240175E-18
   97.42400       -2.0413810E-18
   97.58550       -2.0603549E-18
   97.74700       -2.0678860E-18
   97.90850       -2.0594971E-18
   98.07000       -2.0425374E-18
   98.23150       -2.0306109E-18
   98.39300       -2.0333102E-18
   98.55450       -2.0489336E-18
   98.71600       -2.0656929E-18
   98.87750       -2.0705714E-18
   99.03900       -2.0592014E-18
   99.20050       -2.0392999E-18
   99.36200       -2.0250455E-18
   99.52350       -2.0265813E-18
   99.68500       -2.0425089E-18
   99.84650       -2.0609732E-18
   100.0080       -2.0685401E-18
   100.1695       -2.0602306E-18
   100.3310       -2.0432108E-18
   100.4925       -2.0313724E-18
   100.6540       -2.0348904E-18
   100.8155       -2.0525922E-18
   100.9770       -2.0728422E-18
   101.1385       -2.0822121E-18
   101.3000       -2.0754421E-18
   101.4615       -2.0592672E-18
   101.6230       -2.0473109E-18
   101.7845       -2.0498630E-18
   101.9460       -2.0661518E-18
   102.1075       -2.0848779E-18
   102.2690       -2.0926081E-18
   102.4305       -2.0837567E-18
   102.5920       -2.0646972E-18
   102.7535       -2.0489591E-18
   102.9150       -2.0471258E-18
   103.0765       -2.0589799E-18
   103.2380       -2.0737517E-18
   103.3995       -2.0783000E-18
   103.5610       -2.0671136E-18
   103.7225       -2.0466181E-18
   103.8840       -2.0305078E-18
   104.0455       -2.0295658E-18
   104.2070       -2.0436210E-18
   104.3685       -2.0616983E-18
   104.5300       -2.0702558E-18
   104.6915       -2.0633090E-18
   104.8530       -2.0468553E-18
   105.0145       -2.0342683E-18
   105.1760       -2.0361272E-18
   105.3375       -2.0521209E-18
   105.4990       -2.0711496E-18
   105.6605       -2.0795792E-18
   105.8220       -2.0714617E-18
   105.9835       -2.0530288E-18
   106.1450       -2.0381064E-18
   106.3065       -2.0378823E-18
   106.4680       -2.0526772E-18
   106.6295       -2.0718279E-18
   106.7910       -2.0817379E-18
   106.9525       -2.0760866E-18
   107.1140       -2.0605665E-18
   107.2755       -2.0485897E-18
   107.4370       -2.0511751E-18
   107.5985       -2.0685758E-18
   107.7600       -2.0899293E-18
   107.9215       -2.1011934E-18
   108.0830       -2.0954774E-18
   108.2445       -2.0781023E-18
   108.4060       -2.0626239E-18
   108.5675       -2.0607747E-18
   108.7290       -2.0737834E-18
   108.8905       -2.0915560E-18
   109.0520       -2.1003400E-18
   109.2135       -2.0931293E-18
   109.3750       -2.0749890E-18
   109.5365       -2.0592965E-18
   109.6980       -2.0577077E-18
   109.8595       -2.0713680E-18
   110.0210       -2.0899618E-18
   110.1825       -2.0993362E-18
   110.3440       -2.0920287E-18
   110.5055       -2.0728205E-18
   110.6670       -2.0551354E-18
   110.8285       -2.0509964E-18
   110.9900       -2.0621065E-18
   111.1515       -2.0787516E-18
   111.3130       -2.0872867E-18
   111.4745       -2.0805249E-18
   111.6360       -2.0632021E-18
   111.7975       -2.0484334E-18
   111.9590       -2.0478426E-18
   112.1205       -2.0627622E-18
   112.2820       -2.0831270E-18
   112.4435       -2.0948976E-18
   112.6050       -2.0904511E-18
   112.7665       -2.0741593E-18
   112.9280       -2.0590169E-18
   113.0895       -2.0568948E-18
   113.2510       -2.0697153E-18
   113.4125       -2.0881188E-18
   113.5740       -2.0985924E-18
   113.7355       -2.0937124E-18
   113.8970       -2.0778126E-18
   114.0585       -2.0637778E-18
   114.2200       -2.0633367E-18
   114.3815       -2.0781184E-18
   114.5430       -2.0982485E-18
   114.7045       -2.1095649E-18
   114.8660       -2.1040973E-18
   115.0275       -2.0859868E-18
   115.1890       -2.0684100E-18
   115.3505       -2.0637885E-18
   115.5120       -2.0745849E-18
   115.6735       -2.0916043E-18
   115.8350       -2.1010731E-18
   115.9965       -2.0951621E-18
   116.1580       -2.0779964E-18
   116.3195       -2.0626183E-18
   116.4810       -2.0611904E-18
   116.6425       -2.0757903E-18
   116.8040       -2.0966946E-18
   116.9655       -2.1094470E-18
   117.1270       -2.1054584E-18
   117.2885       -2.0882574E-18
   117.4500       -2.0707592E-18
   117.6115       -2.0656214E-18
   117.7730       -2.0759049E-18
   117.9345       -2.0929845E-18
   118.0960       -2.1031954E-18
   118.2575       -2.0981831E-18
   118.4190       -2.0812383E-18
   118.5805       -2.0649121E-18
   118.7420       -2.0616883E-18