  -27.90000        8.8731573E-18
  -27.73850        8.8998562E-18
  -27.57700        8.9370868E-18
  -27.41550        8.9646964E-18
  -27.25400        8.9728078E-18
  -27.09250        8.9683336E-18
  -26.93100        8.9690284E-18
  -26.76950        8.9895780E-18
  -26.60800        9.0300801E-18
  -26.44650        9.0754741E-18
  -26.28500        9.1063677E-18
  -26.12350        9.1132184E-18
  -25.96200        9.1033708E-18
  -25.80050        9.0957202E-18
  -25.63900        9.1069277E-18
  -25.47750        9.1393647E-18
  -25.31600        9.1796517E-18
  -25.15450        9.2087917E-18
  -24.99300        9.2163298E-18
  -24.83150        9.2080356E-18
  -24.67000        9.2014570E-18
  -24.50850        9.2127398E-18
  -24.34700        9.2445490E-18
  -24.18550        9.2840883E-18
  -24.02400        9.3126508E-18
  -23.86250        9.3195611E-18
  -23.70100        9.3101279E-18
  -23.53950        9.3016931E-18
  -23.37800        9.3107309E-18
  -23.21650        9.3405963E-18
  -23.05500        9.3790271E-18
  -22.89350        9.4072389E-18
  -22.73200        9.4138489E-18
  -22.57050        9.4032784E-18
  -22.40900        9.3924150E-18
  -22.24750        9.3980282E-18
  -22.08600        9.4243210E-18
  -21.92450        9.4598790E-18
  -21.76300        9.4862983E-18
  -21.60150        9.4920514E-18
  -21.44000        9.4812740E-18
  -21.27850        9.4708656E-18
  -21.11700        9.4780141E-18
  -20.95550        9.5073633E-18
  -20.79400        9.5473650E-18
  -20.63250        9.5785687E-18
  -20.47100        9.5877603E-18
  -20.30950        9.5775372E-18
  -20.14800        9.5642163E-18
  -19.98650        9.5656713E-18
  -19.82500        9.5880796E-18
  -19.66350        9.6214241E-18
  -19.50200        9.6470766E-18
  -19.34050        9.6518561E-18
  -19.17900        9.6381282E-18
  -19.01750        9.6224250E-18
  -18.85600        9.6235400E-18
  -18.69450        9.6488344E-18
  -18.53300        9.6888269E-18
  -18.37150        9.7240482E-18
  -18.21000        9.7391120E-18
  -18.04850        9.7336560E-18
  -17.88700        9.7221499E-18
  -17.72550        9.7227802E-18
  -17.56400        9.7436748E-18
  -17.40250        9.7766602E-18
  -17.24100        9.8031714E-18
  -17.07950        9.8079252E-18
  -16.91800        9.7902798E-18
  -16.75650        9.7648986E-18
  -16.59500        9.7512476E-18
  -16.43350        9.7596840E-18
  -16.27200        9.7843803E-18
  -16.11050        9.8082370E-18
  -15.94900        9.8160680E-18
  -15.78750        9.8062427E-18
  -15.62600        9.7921624E-18
  -15.46450        9.7925041E-18
  -15.30300        9.8175006E-18
  -15.14150        9.8614123E-18
  -14.98000        9.9067261E-18
  -14.81850        9.9369033E-18
  -14.65700        9.9481960E-18
  -14.49550        9.9518058E-18
  -14.33400        9.9648538E-18
  -14.17250        9.9969773E-18
  -14.01100        1.0042551E-17
  -13.84950        1.0084351E-17
  -13.68800        1.0105959E-17
  -13.52650        1.0103702E-17
  -13.36500        1.0089291E-17
  -13.20350        1.0081184E-17
  -13.04200        1.0091075E-17
  -12.88050        1.0115473E-17
  -12.71900        1.0138615E-17
  -12.55750        1.0144511E-17
  -12.39600        1.0129154E-17
  -12.23450        1.0103792E-17
  -12.07300        1.0086766E-17
  -11.91150        1.0089943E-17
  -11.75000        1.0109805E-17
  -11.58850        1.0129897E-17
  -11.42700        1.0132924E-17
  -11.26550        1.0113593E-17
  -11.10400        1.0082716E-17
  -10.94250        1.0059478E-17
  -10.78100        1.0057528E-17
  -10.61950        1.0075150E-17
  -10.45800        1.0096781E-17
  -10.29650        1.0104750E-17
  -10.13500        1.0092569E-17
  -9.973500        1.0069938E-17
  -9.812000        1.0055732E-17
  -9.650500        1.0064127E-17
  -9.489000        1.0094092E-17
  -9.327500        1.0130023E-17
  -9.166000        1.0153104E-17
  -9.004500        1.0155029E-17
  -8.843000        1.0144019E-17
  -8.681500        1.0138690E-17
  -8.520000        1.0154282E-17
  -8.358500        1.0191383E-17
  -8.197000        1.0235414E-17
  -8.035500        1.0267245E-17
  -7.874000        1.0277088E-17
  -7.712500        1.0271449E-17
  -7.551000        1.0268020E-17
  -7.389500        1.0282357E-17
  -7.228000        1.0316236E-17
  -7.066500        1.0356305E-17
  -6.905000        1.0384040E-17
  -6.743500        1.0389620E-17
  -6.582000        1.0379430E-17
  -6.420500        1.0371625E-17
  -6.259000        1.0383004E-17
  -6.097500        1.0416851E-17
  -5.936000        1.0460674E-17
  -5.774500        1.0495447E-17
  -5.613000        1.0509454E-17
  -5.451500        1.0506465E-17
  -5.290000        1.0502259E-17
  -5.128500        1.0512127E-17
  -4.967000        1.0538768E-17
  -4.805500        1.0569653E-17
  -4.644000        1.0585966E-17
  -4.482500        1.0576544E-17
  -4.321000        1.0546510E-17
  -4.159500        1.0514114E-17
  -3.998000        1.0498029E-17
  -3.836500        1.0504428E-17
  -3.675000        1.0523347E-17
  -3.513500        1.0536948E-17
  -3.352000        1.0533487E-17
  -3.190500        1.0516510E-17
  -3.029000        1.0502412E-17
  -2.867500        1.0508100E-17
  -2.706000        1.0537982E-17
  -2.544500        1.0580040E-17
  -2.383000        1.0614028E-17
  -2.221500        1.0625877E-17
  -2.060000        1.0617661E-17
  -1.898500        1.0605769E-17
  -1.737000        1.0608549E-17
  -1.575500        1.0632561E-17
  -1.414000        1.0667562E-17
  -1.252500        1.0693978E-17
  -1.091000        1.0697362E-17
 -0.9295000        1.0679101E-17
 -0.7680000        1.0655407E-17
 -0.6065000        1.0645260E-17
 -0.4450000        1.0656251E-17
 -0.2835000        1.0678864E-17
 -0.1220000        1.0693545E-17
  3.9500002E-02    1.0685396E-17
  0.2010000        1.0655593E-17
  0.3625000        1.0621040E-17
  0.5240000        1.0602405E-17
  0.6855000        1.0609354E-17
  0.8470000        1.0633860E-17
   1.008500        1.0656494E-17
   1.170000        1.0660994E-17
   1.331500        1.0646277E-17
   1.493000        1.0627053E-17
   1.654500        1.0622637E-17
   1.816000        1.0642323E-17
   1.977500        1.0678225E-17
   2.139000        1.0710902E-17
   2.300500        1.0723667E-17
   2.462000        1.0714999E-17
   2.623500        1.0699878E-17
   2.785000        1.0699002E-17
   2.946500        1.0723789E-17
   3.108000        1.0768190E-17
   3.269500        1.0813290E-17
   3.431000        1.0841233E-17
   3.592500        1.0848122E-17
   3.754000        1.0846324E-17
   3.915500        1.0854489E-17
   4.077000        1.0882817E-17
   4.238500        1.0924673E-17
   4.400000        1.0960930E-17
   4.561500        1.0973911E-17
   4.723000        1.0960552E-17
   4.884500        1.0934937E-17
   5.046000        1.0918285E-17
   5.207500        1.0923789E-17
   5.369000        1.0947556E-17
   5.530500        1.0972306E-17
   5.692000        1.0980960E-17
   5.853500        1.0969880E-17
   6.015000        1.0951814E-17
   6.176500        1.0946339E-17
   6.338000        1.0964961E-17
   6.499500        1.1002041E-17
   6.661000        1.1038399E-17
   6.822500        1.1054993E-17
   6.984000        1.1046576E-17
   7.145500        1.1025222E-17
   7.307000        1.1011085E-17
   7.468500        1.1017234E-17
   7.630000        1.1039847E-17
   7.791500        1.1061048E-17
   7.953000        1.1062352E-17
   8.114500        1.1038705E-17
   8.276000        1.1002699E-17
   8.437500        1.0975771E-17
   8.599000        1.0972850E-17
   8.760500        1.0991834E-17
   8.922000        1.1015659E-17
   9.083500        1.1025422E-17
   9.245000        1.1014811E-17
   9.406500        1.0995097E-17
   9.568000        1.0986982E-17
   9.729500        1.1005306E-17
   9.891000        1.1047933E-17
   10.05250        1.1096988E-17
   10.21400        1.1131518E-17
   10.37550        1.1142257E-17
   10.53700        1.1137620E-17
   10.69850        1.1136651E-17
   10.86000        1.1154220E-17
   11.02150        1.1189507E-17
   11.18300        1.1226325E-17
   11.34450        1.1245021E-17
   11.50600        1.1237114E-17
   11.66750        1.1211802E-17
   11.82900        1.1189506E-17
   11.99050        1.1187200E-17
   12.15200        1.1206370E-17
   12.31350        1.1232470E-17
   12.47500        1.1246183E-17
   12.63650        1.1238070E-17
   12.79800        1.1215661E-17
   12.95950        1.1197773E-17
   13.12100        1.1200348E-17
   13.28250        1.1224450E-17
   13.44400        1.1255404E-17
   13.60550        1.1273698E-17
   13.76700        1.1269515E-17
   13.92850        1.1250040E-17
   14.09000        1.1234133E-17
   14.25150        1.1238326E-17
   14.41300        1.1264607E-17
   14.57450        1.1299043E-17
   14.73600        1.1322229E-17
   14.89750        1.1323763E-17
   15.05900        1.1309979E-17
   15.22050        1.1299223E-17
   15.38200        1.1308188E-17
   15.54350        1.1339451E-17
   15.70500        1.1379409E-17
   15.86650        1.1408126E-17
   16.02800        1.1413796E-17
   16.18950        1.1401130E-17
   16.35100        1.1387482E-17
   16.51250        1.1389611E-17
   16.67400        1.1410918E-17
   16.83550        1.1438615E-17
   16.99700        1.1452996E-17
   17.15850        1.1442020E-17
   17.32000        1.1410478E-17
   17.48150        1.1376991E-17
   17.64300        1.1360944E-17
   17.80450        1.1368991E-17
   17.96600        1.1390969E-17
   18.12750        1.1408219E-17
   18.28900        1.1408034E-17
   18.45050        1.1393495E-17
   18.61200        1.1381300E-17
   18.77350        1.1389182E-17
   18.93500        1.1422214E-17
   19.09650        1.1468245E-17
   19.25800        1.1505943E-17
   19.41950        1.1519598E-17
   19.58100        1.1509829E-17
   19.74250        1.1492337E-17
   19.90400        1.1485777E-17
   20.06550        1.1497813E-17
   20.22700        1.1519696E-17
   20.38850        1.1533306E-17
   20.55000        1.1525294E-17
   20.71150        1.1497766E-17
   20.87300        1.1467516E-17
   21.03450        1.1454360E-17
   21.19600        1.1467153E-17
   21.35750        1.1497762E-17
   21.51900        1.1527362E-17
   21.68050        1.1540372E-17
   21.84200        1.1535759E-17
   22.00350        1.1527471E-17
   22.16500        1.1533752E-17
   22.32650        1.1563288E-17
   22.48800        1.1608405E-17
   22.64950        1.1650338E-17
   22.81100        1.1672688E-17
   22.97250        1.1673114E-17
   23.13400        1.1664601E-17
   23.29550        1.1665386E-17
   23.45700        1.1685026E-17
   23.61850        1.1716987E-17
   23.78000        1.1743285E-17
   23.94150        1.1747794E-17
   24.10300        1.1728368E-17
   24.26450        1.1698758E-17
   24.42600        1.1678893E-17
   24.58750        1.1680686E-17
   24.74900        1.1699866E-17
   24.91050        1.1719804E-17
   25.07200        1.1724405E-17
   25.23350        1.1710397E-17
   25.39500        1.1689832E-17
   25.55650        1.1680958E-17
   25.71800        1.1694244E-17
   25.87950        1.1724002E-17
   26.04100        1.1751968E-17
   26.20250        1.1760332E-17
   26.36400        1.1744698E-17
   26.52550        1.1717399E-17
   26.68700        1.1698690E-17
   26.84850        1.1702268E-17
   27.01000        1.1725735E-17
   27.17150        1.1753025E-17
   27.33300        1.1766906E-17
   27.49450        1.1762235E-17
   27.65600        1.1750024E-17
   27.81750        1.1749197E-17
   27.97900        1.1772128E-17
   28.14050        1.1814698E-17
   28.30200        1.1858360E-17
   28.46350        1.1882815E-17
   28.62500        1.1880052E-17
   28.78650        1.1859523E-17
   28.94800        1.1840760E-17
   29.10950        1.1838949E-17
   29.27100        1.1854095E-17
   29.43250        1.1871690E-17
   29.59400        1.1874232E-17
   29.75550        1.1855003E-17
   29.91700        1.1823840E-17
   30.07850        1.1800641E-17
   30.24000        1.1801311E-17
   30.40150        1.1826482E-17
   30.56300        1.1861239E-17
   30.72450        1.1886053E-17
   30.88600        1.1890900E-17
   31.04750        1.1882219E-17
   31.20900        1.1877615E-17
   31.37050        1.1892263E-17
   31.53200        1.1927110E-17
   31.69350        1.1967655E-17
   31.85500        1.1994261E-17
   32.01650        1.1996325E-17
   32.17800        1.1979790E-17
   32.33950        1.1962399E-17
   32.50100        1.1960244E-17
   32.66250        1.1975676E-17
   32.82400        1.1995672E-17
   32.98550        1.2001918E-17
   33.14700        1.1985093E-17
   33.30850        1.1952632E-17
   33.47000        1.1924102E-17
   33.63150        1.1917529E-17
   33.79300        1.1936786E-17
   33.95450        1.1969293E-17
   34.11600        1.1995688E-17
   34.27750        1.2004229E-17
   34.43900        1.1999225E-17
   34.60050        1.1997264E-17
   34.76200        1.2014053E-17
   34.92350        1.2051738E-17
   35.08500        1.2096195E-17
   35.24650        1.2126501E-17
   35.40800        1.2129697E-17
   35.56950        1.2110054E-17
   35.73100        1.2085992E-17
   35.89250        1.2076846E-17
   36.05400        1.2089130E-17
   36.21550        1.2112340E-17
   36.37700        1.2127352E-17
   36.53850        1.2121159E-17
   36.70000        1.2097001E-17
   36.86150        1.2072325E-17
   37.02300        1.2066028E-17
   37.18450        1.2084409E-17
   37.34600        1.2116228E-17
   37.50750        1.2140632E-17
   37.66900        1.2142192E-17
   37.83050        1.2122000E-17
   37.99200        1.2096682E-17
   38.15350        1.2086013E-17
   38.31500        1.2098334E-17
   38.47650        1.2124549E-17
   38.63800        1.2145122E-17
   38.79950        1.2144873E-17
   38.96100        1.2124555E-17
   39.12250        1.2100632E-17
   39.28400        1.2093376E-17
   39.44550        1.2112081E-17
   39.60700        1.2148358E-17
   39.76850        1.2182469E-17
   39.93000        1.2197979E-17
   40.09150        1.2193837E-17
   40.25300        1.2184863E-17
   40.41450        1.2190327E-17
   40.57600        1.2219081E-17
   40.73750        1.2262337E-17
   40.89900        1.2299469E-17
   41.06050        1.2312631E-17
   41.22200        1.2299406E-17
   41.38350        1.2274196E-17
   41.54500        1.2257341E-17
   41.70650        1.2260115E-17
   41.86800        1.2276737E-17
   42.02950        1.2289328E-17
   42.19100        1.2282065E-17
   42.35250        1.2253967E-17
   42.51400        1.2220715E-17
   42.67550        1.2203997E-17
   42.83700        1.2216131E-17
   42.99850        1.2251274E-17
   43.16000        1.2289758E-17
   43.32150        1.2312334E-17
   43.48300        1.2313841E-17
   43.64450        1.2306154E-17
   43.80600        1.2308352E-17
   43.96750        1.2331470E-17
   44.12900        1.2369292E-17
   44.29050        1.2402165E-17
   44.45200        1.2411138E-17
   44.61350        1.2391968E-17
   44.77500        1.2358559E-17
   44.93650        1.2333144E-17
   45.09800        1.2330410E-17
   45.25950        1.2347267E-17
   45.42100        1.2365813E-17
   45.58250        1.2367261E-17
   45.74400        1.2346488E-17
   45.90550        1.2316403E-17
   46.06700        1.2298798E-17
   46.22850        1.2308400E-17
   46.39000        1.2341914E-17
   46.55150        1.2380243E-17
   46.71300        1.2402347E-17
   46.87450        1.2400485E-17
   47.03600        1.2385619E-17
   47.19750        1.2378888E-17
   47.35900        1.2395473E-17
   47.52050        1.2432781E-17
   47.68200        1.2471783E-17
   47.84350        1.2490637E-17
   48.00500        1.2480618E-17
   48.16650        1.2452561E-17
   48.32800        1.2429024E-17
   48.48950        1.2427949E-17
   48.65100        1.2449904E-17
   48.81250        1.2478269E-17
   48.97400        1.2492106E-17
   49.13550        1.2482109E-17
   49.29700        1.2457731E-17
   49.45850        1.2440198E-17
   49.62000        1.2446593E-17
   49.78150        1.2476838E-17
   49.94300        1.2513277E-17
   50.10450        1.2533209E-17
   50.26600        1.2525151E-17
   50.42750        1.2496867E-17
   50.58900        1.2469364E-17
   50.75050        1.2461361E-17
   50.91200        1.2475769E-17
   51.07350        1.2498170E-17
   51.23500        1.2508386E-17
   51.39650        1.2496427E-17
   51.55800        1.2470827E-17
   51.71950        1.2452983E-17
   51.88100        1.2461554E-17
   52.04250        1.2498510E-17
   52.20400        1.2547265E-17
   52.36550        1.2584389E-17
   52.52700        1.2596310E-17
   52.68850        1.2588631E-17
   52.85000        1.2581099E-17
   53.01150        1.2591995E-17
   53.17300        1.2623655E-17
   53.33450        1.2660089E-17
   53.49600        1.2678591E-17
   53.65750        1.2666733E-17
   53.81900        1.2632017E-17
   53.98050        1.2596884E-17
   54.14200        1.2582665E-17
   54.30350        1.2594321E-17
   54.46500        1.2617276E-17
   54.62650        1.2628767E-17
   54.78800        1.2615314E-17
   54.94950        1.2583345E-17
   55.11100        1.2555029E-17
   55.27250        1.2552314E-17
   55.43400        1.2580898E-17
   55.59550        1.2625956E-17
   55.75700        1.2662781E-17
   55.91850        1.2674539E-17
   56.08000        1.2664076E-17
   56.24150        1.2651048E-17
   56.40300        1.2656505E-17
   56.56450        1.2686352E-17
   56.72600        1.2726103E-17
   56.88750        1.2750944E-17
   57.04900        1.2743809E-17
   57.21050        1.2708112E-17
   57.37200        1.2665680E-17
   57.53350        1.2641374E-17
   57.69500        1.2645689E-17
   57.85650        1.2668147E-17
   58.01800        1.2686267E-17
   58.17950        1.2683255E-17
   58.34100        1.2661085E-17
   58.50250        1.2639158E-17
   58.66400        1.2639560E-17
   58.82550        1.2670050E-17
   58.98700        1.2717523E-17
   59.14850        1.2756919E-17
   59.31000        1.2769022E-17
   59.47150        1.2753982E-17
   59.63300        1.2730630E-17
   59.79450        1.2722147E-17
   59.95600        1.2738810E-17
   60.11750        1.2770614E-17
   60.27900        1.2795195E-17
   60.44050        1.2795043E-17
   60.60200        1.2771116E-17
   60.76350        1.2742611E-17
   60.92500        1.2732976E-17
   61.08650        1.2752459E-17
   61.24800        1.2790231E-17
   61.40950        1.2822082E-17
   61.57100        1.2828137E-17
   61.73250        1.2807476E-17
   61.89400        1.2778724E-17
   62.05550        1.2766066E-17
   62.21700        1.2781083E-17
   62.37850        1.2813967E-17
   62.54000        1.2840770E-17
   62.70150        1.2841359E-17
   62.86300        1.2814647E-17
   63.02450        1.2779687E-17
   63.18600        1.2761679E-17
   63.34750        1.2773340E-17
   63.50900        1.2805577E-17
   63.67050        1.2834473E-17
   63.83200        1.2839392E-17
   63.99350        1.2818694E-17
   64.15500        1.2791360E-17
   64.31650        1.2783249E-17
   64.47800        1.2808138E-17
   64.63950        1.2857513E-17
   64.80100        1.2906624E-17
   64.96250        1.2932303E-17
   65.12400        1.2929367E-17
   65.28550        1.2913522E-17
   65.44700        1.2908717E-17
   65.60850        1.2928400E-17
   65.77000        1.2964690E-17
   65.93150        1.2993611E-17
   66.09300        1.2992674E-17
   66.25450        1.2957850E-17
   66.41600        1.2907325E-17
   66.57750        1.2869092E-17
   66.73900        1.2861423E-17
   66.90050        1.2880599E-17
   67.06200        1.2904907E-17
   67.22350        1.2911781E-17
   67.38500        1.2895203E-17
   67.54650        1.2870332E-17
   67.70800        1.2861921E-17
   67.86950        1.2885226E-17
   68.03100        1.2933770E-17
   68.19250        1.2983185E-17
   68.35400        1.3008360E-17
   68.51550        1.3001202E-17
   68.67700        1.2975854E-17
   68.83850        1.2957629E-17
   69.00000        1.2963971E-17
   69.16150        1.2991617E-17
   69.32300        1.3019396E-17
   69.48450        1.3024490E-17
   69.64600        1.2999974E-17
   69.80750        1.2960540E-17
   69.96900        1.2932067E-17
   70.13050        1.2932750E-17
   70.29200        1.2959842E-17
   70.45350        1.2991930E-17
   70.61500        1.3005087E-17
   70.77650        1.2990881E-17
   70.93800        1.2962757E-17
   71.09950        1.2945956E-17
   71.26100        1.2958411E-17
   71.42250        1.2996944E-17
   71.58400        1.3039181E-17
   71.74550        1.3059892E-17
   71.90700        1.3049562E-17
   72.06850        1.3021271E-17
   72.23000        1.3000712E-17
   72.39150        1.3006836E-17
   72.55300        1.3037639E-17
   72.71450        1.3071738E-17
   72.87600        1.3084565E-17
   73.03750        1.3067102E-17
   73.19900        1.3033121E-17
   73.36050        1.3009462E-17
   73.52200        1.3016469E-17
   73.68350        1.3053063E-17
   73.84500        1.3097473E-17
   74.00650        1.3123083E-17
   74.16800        1.3117706E-17
   74.32950        1.3092085E-17
   74.49100        1.3071391E-17
   74.65250        1.3076043E-17
   74.81400        1.3106076E-17
   74.97550        1.3140753E-17
   75.13700        1.3153825E-17
   75.29850        1.3133199E-17
   75.46000        1.3090405E-17
   75.62150        1.3052738E-17
   75.78300        1.3043799E-17
   75.94450        1.3066788E-17
   76.10600        1.3102841E-17
   76.26750        1.3125608E-17
   76.42900        1.3121124E-17
   76.59050        1.3098192E-17
   76.75200        1.3081511E-17
   76.91350        1.3092798E-17
   77.07500        1.3134037E-17
   77.23650        1.3185427E-17
   77.39800        1.3219515E-17
   77.55950        1.3220977E-17
   77.72100        1.3197334E-17
   77.88250        1.3172723E-17
   78.04400        1.3169498E-17
   78.20550        1.3191430E-17
   78.36700        1.3221070E-17
   78.52850        1.3233171E-17
   78.69000        1.3214073E-17
   78.85150        1.3172502E-17
   79.01300        1.3133692E-17
   79.17450        1.3121227E-17
   79.33600        1.3140143E-17
   79.49750        1.3173849E-17
   79.65900        1.3197098E-17
   79.82050        1.3195235E-17
   79.98200        1.3175258E-17
   80.14350        1.3160366E-17
   80.30500        1.3172056E-17
   80.46650        1.3213247E-17
   80.62800        1.3265115E-17
   80.78950        1.3300158E-17
   80.95100        1.3301848E-17
   81.11250        1.3276305E-17
   81.27400        1.3247357E-17
   81.43550        1.3238649E-17
   81.59700        1.3256136E-17
   81.75850        1.3283982E-17
   81.92000        1.3296956E-17
   82.08150        1.3280032E-17
   82.24300        1.3240530E-17
   82.40450        1.3203567E-17
   82.56600        1.3194065E-17
   82.72750        1.3218553E-17
   82.88900        1.3260283E-17
   83.05050        1.3291368E-17
   83.21200        1.3293046E-17
   83.37350        1.3269100E-17
   83.53500        1.3242512E-17
   83.69650        1.3237873E-17
   83.85800        1.3262708E-17
   84.01950        1.3301645E-17
   84.18100        1.3327785E-17
   84.34250        1.3322780E-17
   84.50400        1.3290677E-17
   84.66550        1.3255197E-17
   84.82700        1.3242485E-17
   84.98850        1.3262078E-17
   85.15000        1.3300222E-17
   85.31150        1.3330372E-17
   85.47300        1.3333011E-17
   85.63450        1.3310022E-17
   85.79600        1.3283028E-17
   85.95750        1.3277070E-17
   86.11900        1.3301840E-17
   86.28050        1.3344410E-17
   86.44200        1.3378776E-17
   86.60350        1.3385032E-17
   86.76500        1.3363880E-17
   86.92650        1.3335704E-17
   87.08800        1.3324985E-17
   87.24950        1.3341772E-17
   87.41100        1.3374075E-17
   87.57250        1.3396839E-17
   87.73400        1.3390787E-17
   87.89550        1.3357047E-17
   88.05700        1.3316693E-17
   88.21850        1.3295544E-17
   88.38000        1.3305574E-17
   88.54150        1.3336762E-17
   88.70300        1.3365380E-17
   88.86450        1.3372370E-17
   89.02600        1.3357925E-17
   89.18750        1.3341304E-17
   89.34900        1.3346009E-17
   89.51050        1.3381462E-17
   89.67200        1.3434942E-17
   89.83350        1.3479936E-17
   89.99500        1.3494818E-17
   90.15650        1.3478063E-17
   90.31800        1.3448742E-17
   90.47950        1.3431974E-17
   90.64100        1.3440220E-17
   90.80250        1.3464350E-17
   90.96400        1.3481116E-17
   91.12550        1.3471401E-17
   91.28700        1.3435566E-17
   91.44850        1.3394298E-17
   91.61000        1.3374124E-17
   91.77150        1.3388221E-17
   91.93300        1.3426754E-17
   92.09450        1.3464016E-17
   92.25600        1.3477137E-17
   92.41750        1.3462546E-17
   92.57900        1.3437959E-17
   92.74050        1.3428538E-17
   92.90200        1.3447585E-17
   93.06350        1.3486218E-17
   93.22500        1.3519743E-17
   93.38650        1.3525963E-17
   93.54800        1.3501766E-17
   93.70950        1.3465596E-17
   93.87100        1.3444023E-17
   94.03250        1.3452389E-17
   94.19400        1.3483881E-17
   94.35550        1.3514995E-17
   94.51700        1.3523204E-17
   94.67850        1.3503689E-17
   94.84000        1.3472827E-17
   95.00150        1.3455955E-17
   95.16300        1.3468593E-17
   95.32450        1.3504987E-17
   95.48600        1.3542412E-17
   95.64750        1.3557933E-17
   95.80900        1.3545168E-17
   95.97050        1.3518657E-17
   96.13200        1.3502697E-17
   96.29350        1.3512976E-17
   96.45500        1.3544708E-17
   96.61650        1.3576093E-17
   96.77800        1.3584566E-17
   96.93950        1.3563702E-17
   97.10100        1.3528175E-17
   97.26250        1.3503046E-17
   97.42400        1.3505439E-17
   97.58550        1.3532284E-17
   97.74700        1.3563238E-17
   97.90850        1.3576466E-17
   98.07000        1.3565316E-17
   98.23150        1.3543345E-17
   98.39300        1.3533892E-17
   98.55450        1.3552124E-17
   98.71600        1.3593048E-17
   98.87750        1.3634562E-17
   99.03900        1.3653274E-17
   99.20050        1.3641295E-17
   99.36200        1.3611527E-17
   99.52350        1.3587607E-17
   99.68500        1.3586127E-17
   99.84650        1.3604407E-17
   100.0080        1.3622940E-17
   100.1695        1.3620633E-17
   100.3310        1.3591405E-17
   100.4925        1.3549662E-17
   100.6540        1.3520442E-17
   100.8155        1.3521464E-17
   100.9770        1.3550370E-17
   101.1385        1.3586638E-17
   101.3000        1.3606752E-17
   101.4615        1.3601396E-17
   101.6230        1.3581932E-17
   101.7845        1.3571371E-17
   101.9460        1.3586585E-17
   102.1075        1.3625044E-17
   102.2690        1.3666014E-17
   102.4305        1.3685389E-17
   102.5920        1.3673199E-17
   102.7535        1.3640808E-17
   102.9150        1.3612547E-17
   103.0765        1.3607976E-17
   103.2380        1.3627892E-17
   103.3995        1.3654355E-17
   103.5610        1.3664612E-17
   103.7225        1.3648476E-17
   103.8840        1.3616268E-17
   104.0455        1.3591439E-17
   104.2070        1.3593409E-17
   104.3685        1.3623338E-17
   104.5300        1.3663322E-17
   104.6915        1.3689524E-17
   104.8530        1.3689431E-17
   105.0145        1.3670515E-17
   105.1760        1.3653996E-17
   105.3375        1.3658500E-17
   105.4990        1.3685891E-17
   105.6605        1.3719841E-17
   105.8220        1.3738090E-17
   105.9835        1.3729171E-17
   106.1450        1.3701065E-17
   106.3065        1.3675398E-17
   106.4680        1.3671569E-17
   106.6295        1.3692685E-17
   106.7910        1.3723720E-17
   106.9525        1.3743144E-17
   107.1140        1.3739217E-17
   107.2755        1.3718684E-17
   107.4370        1.3701427E-17
   107.5985        1.3705199E-17
   107.7600        1.3731947E-17
   107.9215        1.3766050E-17
   108.0830        1.3785752E-17
   108.2445        1.3779231E-17
   108.4060        1.3753282E-17
   108.5675        1.3728138E-17
   108.7290        1.3722318E-17
   108.8905        1.3738870E-17
   109.0520        1.3763308E-17
   109.2135        1.3774744E-17
   109.3750        1.3761860E-17
   109.5365        1.3731752E-17
   109.6980        1.3705039E-17
   109.8595        1.3700879E-17
   110.0210        1.3722991E-17
   110.1825        1.3757062E-17
   110.3440        1.3781428E-17
   110.5055        1.3783099E-17
   110.6670        1.3767225E-17
   110.8285        1.3752982E-17
   110.9900        1.3758938E-17
   111.1515        1.3788737E-17
   111.3130        1.3827736E-17
   111.4745        1.3853130E-17
   111.6360        1.3850191E-17
   111.7975        1.3822698E-17
   111.9590        1.3789900E-17
   112.1205        1.3772280E-17
   112.2820        1.3776691E-17
   112.4435        1.3791853E-17
   112.6050        1.3797538E-17
   112.7665        1.3780495E-17
   112.9280        1.3745177E-17
   113.0895        1.3711242E-17
   113.2510        1.3699615E-17
   113.4125        1.3717466E-17
   113.5740        1.3753185E-17
   113.7355        1.3784981E-17
   113.8970        1.3796634E-17
   114.0585        1.3788676E-17
   114.2200        1.3776902E-17
   114.3815        1.3779620E-17
   114.5430        1.3803363E-17
   114.7045        1.3837726E-17
   114.8660        1.3863025E-17
   115.0275        1.3864913E-17
   115.1890        1.3845062E-17
   115.3505        1.3820043E-17
   115.5120        1.3809322E-17
   115.6735        1.3821325E-17
   115.8350        1.3847771E-17
   115.9965        1.3870328E-17
   116.1580        1.3874473E-17
   116.3195        1.3860209E-17
   116.4810        1.3841745E-17
   116.6425        1.3836535E-17
   116.8040        1.3851919E-17
   116.9655        1.3879404E-17
   117.1270        1.3900898E-17
   117.2885        1.3902198E-17
   117.4500        1.3883639E-17
   117.6115        1.3859859E-17
   117.7730        1.3848892E-17
   117.9345        1.3858760E-17
   118.0960        1.3881616E-17
   118.2575        1.3899789E-17
   118.4190        1.3899147E-17
   118.5805        1.3879756E-17
   118.7420        1.3855872E-17