  -27.90000       -1.3131678E-18
  -27.73850       -1.3155898E-18
  -27.57700       -1.3190415E-18
  -27.41550       -1.3217395E-18
  -27.25400       -1.3227065E-18
  -27.09250       -1.3223851E-18
  -26.93100       -1.3222566E-18
  -26.76950       -1.3237326E-18
  -26.60800       -1.3271099E-18
  -26.44650       -1.3313194E-18
  -26.28500       -1.3346470E-18
  -26.12350       -1.3359181E-18
  -25.96200       -1.3353156E-18
  -25.80050       -1.3342619E-18
  -25.63900       -1.3344382E-18
  -25.47750       -1.3366313E-18
  -25.31600       -1.3401984E-18
  -25.15450       -1.3435386E-18
  -24.99300       -1.3452274E-18
  -24.83150       -1.3450225E-18
  -24.67000       -1.3440260E-18
  -24.50850       -1.3438912E-18
  -24.34700       -1.3456392E-18
  -24.18550       -1.3489351E-18
  -24.02400       -1.3523296E-18
  -23.86250       -1.3543034E-18
  -23.70100       -1.3543452E-18
  -23.53950       -1.3533063E-18
  -23.37800       -1.3527797E-18
  -23.21650       -1.3539620E-18
  -23.05500       -1.3568133E-18
  -22.89350       -1.3601014E-18
  -22.73200       -1.3622876E-18
  -22.57050       -1.3626076E-18
  -22.40900       -1.3615878E-18
  -22.24750       -1.3606541E-18
  -22.08600       -1.3611210E-18
  -21.92450       -1.3632856E-18
  -21.76300       -1.3662468E-18
  -21.60150       -1.3685569E-18
  -21.44000       -1.3692510E-18
  -21.27850       -1.3685262E-18
  -21.11700       -1.3676037E-18
  -20.95550       -1.3678718E-18
  -20.79400       -1.3699047E-18
  -20.63250       -1.3730360E-18
  -20.47100       -1.3758022E-18
  -20.30950       -1.3769566E-18
  -20.14800       -1.3763477E-18
  -19.98650       -1.3750440E-18
  -19.82500       -1.3745886E-18
  -19.66350       -1.3759123E-18
  -19.50200       -1.3786685E-18
  -19.34050       -1.3814907E-18
  -19.17900       -1.3829848E-18
  -19.01750       -1.3827590E-18
  -18.85600       -1.3817354E-18
  -18.69450       -1.3815037E-18
  -18.53300       -1.3831765E-18
  -18.37150       -1.3865708E-18
  -18.21000       -1.3903103E-18
  -18.04850       -1.3927669E-18
  -17.88700       -1.3931727E-18
  -17.72550       -1.3921083E-18
  -17.56400       -1.3910423E-18
  -17.40250       -1.3912704E-18
  -17.24100       -1.3929981E-18
  -17.07950       -1.3952141E-18
  -16.91800       -1.3964151E-18
  -16.75650       -1.3956712E-18
  -16.59500       -1.3932911E-18
  -16.43350       -1.3906491E-18
  -16.27200       -1.3893006E-18
  -16.11050       -1.3899940E-18
  -15.94900       -1.3922267E-18
  -15.78750       -1.3946386E-18
  -15.62600       -1.3959719E-18
  -15.46450       -1.3959590E-18
  -15.30300       -1.3955284E-18
  -15.14150       -1.3961827E-18
  -14.98000       -1.3989608E-18
  -14.81850       -1.4036883E-18
  -14.65700       -1.4090365E-18
  -14.49550       -1.4133678E-18
  -14.33400       -1.4157851E-18
  -14.17250       -1.4166702E-18
  -14.01100       -1.4173239E-18
  -13.84950       -1.4189724E-18
  -13.68800       -1.4218460E-18
  -13.52650       -1.4249925E-18
  -13.36500       -1.4269612E-18
  -13.20350       -1.4268427E-18
  -13.04200       -1.4249271E-18
  -12.88050       -1.4225163E-18
  -12.71900       -1.4210368E-18
  -12.55750       -1.4210929E-18
  -12.39600       -1.4221209E-18
  -12.23450       -1.4228648E-18
  -12.07300       -1.4223035E-18
  -11.91150       -1.4203614E-18
  -11.75000       -1.4179301E-18
  -11.58850       -1.4162175E-18
  -11.42700       -1.4159165E-18
  -11.26550       -1.4167639E-18
  -11.10400       -1.4177861E-18
  -10.94250       -1.4180314E-18
  -10.78100       -1.4172764E-18
  -10.61950       -1.4162115E-18
  -10.45800       -1.4159751E-18
  -10.29650       -1.4173596E-18
  -10.13500       -1.4202355E-18
  -9.973500       -1.4236031E-18
  -9.812000       -1.4262346E-18
  -9.650500       -1.4274863E-18
  -9.489000       -1.4277150E-18
  -9.327500       -1.4280055E-18
  -9.166000       -1.4293798E-18
  -9.004500       -1.4320405E-18
  -8.843000       -1.4351980E-18
  -8.681500       -1.4376259E-18
  -8.520000       -1.4385565E-18
  -8.358500       -1.4382791E-18
  -8.197000       -1.4379931E-18
  -8.035500       -1.4389792E-18
  -7.874000       -1.4416722E-18
  -7.712500       -1.4452904E-18
  -7.551000       -1.4483123E-18
  -7.389500       -1.4494951E-18
  -7.228000       -1.4487130E-18
  -7.066500       -1.4470250E-18
  -6.905000       -1.4459203E-18
  -6.743500       -1.4462807E-18
  -6.582000       -1.4478016E-18
  -6.420500       -1.4492723E-18
  -6.259000       -1.4495168E-18
  -6.097500       -1.4483064E-18
  -5.936000       -1.4465964E-18
  -5.774500       -1.4458995E-18
  -5.613000       -1.4472393E-18
  -5.451500       -1.4504138E-18
  -5.290000       -1.4540761E-18
  -5.128500       -1.4565720E-18
  -4.967000       -1.4569654E-18
  -4.805500       -1.4555739E-18
  -4.644000       -1.4536820E-18
  -4.482500       -1.4526421E-18
  -4.321000       -1.4529853E-18
  -4.159500       -1.4541467E-18
  -3.998000       -1.4549658E-18
  -3.836500       -1.4546243E-18
  -3.675000       -1.4533510E-18
  -3.513500       -1.4523803E-18
  -3.352000       -1.4531590E-18
  -3.190500       -1.4563121E-18
  -3.029000       -1.4610941E-18
  -2.867500       -1.4657575E-18
  -2.706000       -1.4686319E-18
  -2.544500       -1.4691938E-18
  -2.383000       -1.4683581E-18
  -2.221500       -1.4677649E-18
  -2.060000       -1.4685704E-18
  -1.898500       -1.4706189E-18
  -1.737000       -1.4726188E-18
  -1.575500       -1.4731821E-18
  -1.414000       -1.4719485E-18
  -1.252500       -1.4699247E-18
  -1.091000       -1.4687758E-18
 -0.9295000       -1.4695911E-18
 -0.7680000       -1.4720585E-18
 -0.6065000       -1.4746430E-18
 -0.4450000       -1.4756480E-18
 -0.2835000       -1.4743616E-18
 -0.1220000       -1.4714937E-18
  3.9500002E-02   -1.4686372E-18
  0.2010000       -1.4671886E-18
  0.3625000       -1.4674994E-18
  0.5240000       -1.4688022E-18
  0.6855000       -1.4698914E-18
  0.8470000       -1.4700482E-18
   1.008500       -1.4695604E-18
   1.170000       -1.4695116E-18
   1.331500       -1.4709955E-18
   1.493000       -1.4742752E-18
   1.654500       -1.4784714E-18
   1.816000       -1.4820032E-18
   1.977500       -1.4835448E-18
   2.139000       -1.4828705E-18
   2.300500       -1.4810092E-18
   2.462000       -1.4795568E-18
   2.623500       -1.4796007E-18
   2.785000       -1.4810246E-18
   2.946500       -1.4827200E-18
   3.108000       -1.4835597E-18
   3.269500       -1.4833747E-18
   3.431000       -1.4831581E-18
   3.592500       -1.4842932E-18
   3.754000       -1.4873938E-18
   3.915500       -1.4916709E-18
   4.077000       -1.4953510E-18
   4.238500       -1.4968632E-18
   4.400000       -1.4958911E-18
   4.561500       -1.4935172E-18
   4.723000       -1.4913890E-18
   4.884500       -1.4905701E-18
   5.046000       -1.4909424E-18
   5.207500       -1.4915185E-18
   5.369000       -1.4913589E-18
   5.530500       -1.4903519E-18
   5.692000       -1.4893121E-18
   5.853500       -1.4893752E-18
   6.015000       -1.4911584E-18
   6.176500       -1.4942759E-18
   6.338000       -1.4975123E-18
   6.499500       -1.4995221E-18
   6.661000       -1.4996139E-18
   6.822500       -1.4981510E-18
   6.984000       -1.4963296E-18
   7.145500       -1.4954556E-18
   7.307000       -1.4961438E-18
   7.468500       -1.4979577E-18
   7.630000       -1.4997571E-18
   7.791500       -1.5005416E-18
   7.953000       -1.5002188E-18
   8.114500       -1.4997024E-18
   8.276000       -1.5002306E-18
   8.437500       -1.5023812E-18
   8.599000       -1.5055216E-18
   8.760500       -1.5081685E-18
   8.922000       -1.5090381E-18
   9.083500       -1.5080030E-18
   9.245000       -1.5062095E-18
   9.406500       -1.5052587E-18
   9.568000       -1.5060736E-18
   9.729500       -1.5083255E-18
   9.891000       -1.5108162E-18
   10.05250       -1.5124685E-18
   10.21400       -1.5131301E-18
   10.37550       -1.5135887E-18
   10.53700       -1.5148459E-18
   10.69850       -1.5172694E-18
   10.86000       -1.5202782E-18
   11.02150       -1.5227547E-18
   11.18300       -1.5238137E-18
   11.34450       -1.5233497E-18
   11.50600       -1.5220238E-18
   11.66750       -1.5207926E-18
   11.82900       -1.5203376E-18
   11.99050       -1.5207431E-18
   12.15200       -1.5215604E-18
   12.31350       -1.5221720E-18
   12.47500       -1.5222333E-18
   12.63650       -1.5219263E-18
   12.79800       -1.5218617E-18
   12.95950       -1.5226542E-18
   13.12100       -1.5244072E-18
   13.28250       -1.5264817E-18
   13.44400       -1.5277850E-18
   13.60550       -1.5274841E-18
   13.76700       -1.5256419E-18
   13.92850       -1.5232540E-18
   14.09000       -1.5215779E-18
   14.25150       -1.5212241E-18
   14.41300       -1.5217283E-18
   14.57450       -1.5219787E-18
   14.73600       -1.5211816E-18
   14.89750       -1.5195818E-18
   15.05900       -1.5183302E-18
   15.22050       -1.5185885E-18
   15.38200       -1.5206001E-18
   15.54350       -1.5234897E-18
   15.70500       -1.5259439E-18
   15.86650       -1.5272063E-18
   16.02800       -1.5275724E-18
   16.18950       -1.5280261E-18
   16.35100       -1.5293796E-18
   16.51250       -1.5316271E-18
   16.67400       -1.5339863E-18
   16.83550       -1.5355144E-18
   16.99700       -1.5357744E-18
   17.15850       -1.5350659E-18
   17.32000       -1.5341330E-18
   17.48150       -1.5336447E-18
   17.64300       -1.5338078E-18
   17.80450       -1.5343235E-18
   17.96600       -1.5346250E-18
   18.12750       -1.5342488E-18
   18.28900       -1.5331481E-18
   18.45050       -1.5318081E-18
   18.61200       -1.5310384E-18
   18.77350       -1.5314852E-18
   18.93500       -1.5331515E-18
   19.09650       -1.5353023E-18
   19.25800       -1.5369420E-18
   19.41950       -1.5375890E-18
   19.58100       -1.5377509E-18
   19.74250       -1.5386267E-18
   19.90400       -1.5411597E-18
   20.06550       -1.5451641E-18
   20.22700       -1.5492852E-18
   20.38850       -1.5519173E-18
   20.55000       -1.5523922E-18
   20.71150       -1.5514622E-18
   20.87300       -1.5506493E-18
   21.03450       -1.5509865E-18
   21.19600       -1.5522036E-18
   21.35750       -1.5530233E-18
   21.51900       -1.5522957E-18
   21.68050       -1.5500138E-18
   21.84200       -1.5473874E-18
   22.00350       -1.5459505E-18
   22.16500       -1.5464619E-18
   22.32650       -1.5484705E-18
   22.48800       -1.5507860E-18
   22.64950       -1.5523961E-18
   22.81100       -1.5531045E-18
   22.97250       -1.5534981E-18
   23.13400       -1.5544102E-18
   23.29550       -1.5563232E-18
   23.45700       -1.5590697E-18
   23.61850       -1.5619341E-18
   23.78000       -1.5640557E-18
   23.94150       -1.5649399E-18
   24.10300       -1.5648235E-18
   24.26450       -1.5646421E-18
   24.42600       -1.5654868E-18
   24.58750       -1.5677949E-18
   24.74900       -1.5708437E-18
   24.91050       -1.5730507E-18
   25.07200       -1.5730524E-18
   25.23350       -1.5708093E-18
   25.39500       -1.5677901E-18
   25.55650       -1.5659177E-18
   25.71800       -1.5660167E-18
   25.87950       -1.5670256E-18
   26.04100       -1.5667591E-18
   26.20250       -1.5636964E-18
   26.36400       -1.5583889E-18
   26.52550       -1.5532619E-18
   26.68700       -1.5508778E-18
   26.84850       -1.5520176E-18
   27.01000       -1.5551155E-18
   27.17150       -1.5575073E-18
   27.33300       -1.5574865E-18
   27.49450       -1.5555473E-18
   27.65600       -1.5538891E-18
   27.81750       -1.5546623E-18
   27.97900       -1.5583482E-18
   28.14050       -1.5634457E-18
   28.30200       -1.5675925E-18
   28.46350       -1.5692129E-18
   28.62500       -1.5685285E-18
   28.78650       -1.5673175E-18
   28.94800       -1.5676782E-18
   29.10950       -1.5706238E-18
   29.27100       -1.5753795E-18
   29.43250       -1.5797914E-18
   29.59400       -1.5816455E-18
   29.75550       -1.5801276E-18
   29.91700       -1.5764849E-18
   30.07850       -1.5733174E-18
   30.24000       -1.5728123E-18
   30.40150       -1.5751047E-18
   30.56300       -1.5780321E-18
   30.72450       -1.5786831E-18
   30.88600       -1.5757275E-18
   31.04750       -1.5707383E-18
   31.20900       -1.5673036E-18
   31.37050       -1.5684123E-18
   31.53200       -1.5740647E-18
   31.69350       -1.5810640E-18
   31.85500       -1.5852902E-18
   32.01650       -1.5847871E-18
   32.17800       -1.5812245E-18
   32.33950       -1.5785640E-18
   32.50100       -1.5799412E-18
   32.66250       -1.5852035E-18
   32.82400       -1.5910056E-18
   32.98550       -1.5933583E-18
   33.14700       -1.5906364E-18
   33.30850       -1.5847777E-18
   33.47000       -1.5798445E-18
   33.63150       -1.5790995E-18
   33.79300       -1.5827573E-18
   33.95450       -1.5879524E-18
   34.11600       -1.5908310E-18
   34.27750       -1.5892371E-18
   34.43900       -1.5841739E-18
   34.60050       -1.5791045E-18
   34.76200       -1.5776055E-18
   34.92350       -1.5809313E-18
   35.08500       -1.5871027E-18
   35.24650       -1.5922071E-18
   35.40800       -1.5931234E-18
   35.56950       -1.5898513E-18
   35.73100       -1.5857223E-18
   35.89250       -1.5851435E-18
   36.05400       -1.5903252E-18
   36.21550       -1.5993716E-18
   36.37700       -1.6073323E-18
   36.53850       -1.6096675E-18
   36.70000       -1.6056424E-18
   36.86150       -1.5990115E-18
   37.02300       -1.5952917E-18
   37.18450       -1.5975906E-18
   37.34600       -1.6041712E-18
   37.50750       -1.6097236E-18
   37.66900       -1.6094378E-18
   37.83050       -1.6027673E-18
   37.99200       -1.5939676E-18
   38.15350       -1.5889762E-18
   38.31500       -1.5910001E-18
   38.47650       -1.5981338E-18
   38.63800       -1.6047705E-18
   38.79950       -1.6056860E-18
   38.96100       -1.5997739E-18
   39.12250       -1.5907586E-18
   39.28400       -1.5844921E-18
   39.44550       -1.5848504E-18
   39.60700       -1.5911252E-18
   39.76850       -1.5986575E-18
   39.93000       -1.6021998E-18
   40.09150       -1.5996542E-18
   40.25300       -1.5936366E-18
   40.41450       -1.5897355E-18
   40.57600       -1.5925963E-18
   40.73750       -1.6024830E-18
   40.89900       -1.6147718E-18
   41.06050       -1.6229015E-18
   41.22200       -1.6228657E-18
   41.38350       -1.6160994E-18
   41.54500       -1.6085427E-18
   41.70650       -1.6063860E-18
   41.86800       -1.6114802E-18
   42.02950       -1.6198700E-18
   42.19100       -1.6246762E-18
   42.35250       -1.6213080E-18
   42.51400       -1.6110944E-18
   42.67550       -1.6005279E-18
   42.83700       -1.5965783E-18
   42.99850       -1.6015597E-18
   43.16000       -1.6114040E-18
   43.32150       -1.6186513E-18
   43.48300       -1.6179260E-18
   43.64450       -1.6098330E-18
   43.80600       -1.6004337E-18
   43.96750       -1.5967719E-18
   44.12900       -1.6017718E-18
   44.29050       -1.6122089E-18
   44.45200       -1.6211080E-18
   44.61350       -1.6227579E-18
   44.77500       -1.6167352E-18
   44.93650       -1.6081303E-18
   45.09800       -1.6038622E-18
   45.25950       -1.6076916E-18
   45.42100       -1.6174385E-18
   45.58250       -1.6263854E-18
   45.74400       -1.6279412E-18
   45.90550       -1.6203510E-18
   46.06700       -1.6080985E-18
   46.22850       -1.5989093E-18
   46.39000       -1.5983730E-18
   46.55150       -1.6059840E-18
   46.71300       -1.6155324E-18
   46.87450       -1.6196894E-18
   47.03600       -1.6155065E-18
   47.19750       -1.6067517E-18
   47.35900       -1.6012474E-18
   47.52050       -1.6050689E-18
   47.68200       -1.6178959E-18
   47.84350       -1.6330111E-18
   48.00500       -1.6420140E-18
   48.16650       -1.6408123E-18
   48.32800       -1.6324728E-18
   48.48950       -1.6248525E-18
   48.65100       -1.6247943E-18
   48.81250       -1.6331661E-18
   48.97400       -1.6443415E-18
   49.13550       -1.6504089E-18
   49.29700       -1.6469788E-18
   49.45850       -1.6363802E-18
   49.62000       -1.6260042E-18
   49.78150       -1.6230236E-18
   49.94300       -1.6292804E-18
   50.10450       -1.6399510E-18
   50.26600       -1.6469271E-18
   50.42750       -1.6445369E-18
   50.58900       -1.6335845E-18
   50.75050       -1.6208324E-18
   50.91200       -1.6142641E-18
   51.07350       -1.6174340E-18
   51.23500       -1.6269272E-18
   51.39650       -1.6348257E-18
   51.55800       -1.6344834E-18
   51.71950       -1.6254872E-18
   51.88100       -1.6141381E-18
   52.04250       -1.6089885E-18
   52.20400       -1.6146206E-18
   52.36550       -1.6282044E-18
   52.52700       -1.6414205E-18
   52.68850       -1.6463906E-18
   52.85000       -1.6413052E-18
   53.01150       -1.6316310E-18
   53.17300       -1.6260324E-18
   53.33450       -1.6300129E-18
   53.49600       -1.6419336E-18
   53.65750       -1.6542484E-18
   53.81900       -1.6589940E-18
   53.98050       -1.6535005E-18
   54.14200       -1.6422362E-18
   54.30350       -1.6335491E-18
   54.46500       -1.6337113E-18
   54.62650       -1.6425150E-18
   54.78800       -1.6534805E-18
   54.94950       -1.6584671E-18
   55.11100       -1.6534091E-18
   55.27250       -1.6411696E-18
   55.43400       -1.6295220E-18
   55.59550       -1.6256999E-18
   55.75700       -1.6313260E-18
   55.91850       -1.6413260E-18
   56.08000       -1.6476188E-18
   56.24150       -1.6450076E-18
   56.40300       -1.6350461E-18
   56.56450       -1.6250397E-18
   56.72600       -1.6228119E-18
   56.88750       -1.6309891E-18
   57.04900       -1.6449785E-18
   57.21050       -1.6561757E-18
   57.37200       -1.6580906E-18
   57.53350       -1.6509179E-18
   57.69500       -1.6412119E-18
   57.85650       -1.6369546E-18
   58.01800       -1.6416783E-18
   58.17950       -1.6519774E-18
   58.34100       -1.6601363E-18
   58.50250       -1.6598599E-18
   58.66400       -1.6508823E-18
   58.82550       -1.6391580E-18
   58.98700       -1.6326201E-18
   59.14850       -1.6356292E-18
   59.31000       -1.6460296E-18
   59.47150       -1.6567926E-18
   59.63300       -1.6609727E-18
   59.79450       -1.6564865E-18
   59.95600       -1.6474348E-18
   60.11750       -1.6411203E-18
   60.27900       -1.6428406E-18
   60.44050       -1.6520902E-18
   60.60200       -1.6628435E-18
   60.76350       -1.6677833E-18
   60.92500       -1.6635704E-18
   61.08650       -1.6533992E-18
   61.24800       -1.6448967E-18
   61.40950       -1.6447243E-18
   61.57100       -1.6537197E-18
   61.73250       -1.6661598E-18
   61.89400       -1.6737980E-18
   62.05550       -1.6717952E-18
   62.21700       -1.6621788E-18
   62.37850       -1.6522569E-18
   62.54000       -1.6491635E-18
   62.70150       -1.6546027E-18
   62.86300       -1.6636868E-18
   63.02450       -1.6686534E-18
   63.18600       -1.6646297E-18
   63.34750       -1.6531920E-18
   63.50900       -1.6412197E-18
   63.67050       -1.6360186E-18
   63.83200       -1.6403100E-18
   63.99350       -1.6505658E-18
   64.15500       -1.6596610E-18
   64.31650       -1.6618421E-18
   64.47800       -1.6565466E-18
   64.63950       -1.6485873E-18
   64.80100       -1.6447003E-18
   64.96250       -1.6488545E-18
   65.12400       -1.6594749E-18
   65.28550       -1.6704604E-18
   65.44700       -1.6753526E-18
   65.60850       -1.6718658E-18
   65.77000       -1.6636187E-18
   65.93150       -1.6577251E-18
   66.09300       -1.6597722E-18
   66.25450       -1.6697203E-18
   66.41600       -1.6817557E-18
   66.57750       -1.6883561E-18
   66.73900       -1.6856846E-18
   66.90050       -1.6763262E-18
   67.06200       -1.6672948E-18
   67.22350       -1.6647799E-18
   67.38500       -1.6696111E-18
   67.54650       -1.6768257E-18
   67.70800       -1.6795906E-18
   67.86950       -1.6744231E-18
   68.03100       -1.6637908E-18
   68.19250       -1.6542756E-18
   68.35400       -1.6518435E-18
   68.51550       -1.6577744E-18
   68.67700       -1.6680633E-18
   68.83850       -1.6764618E-18
   69.00000       -1.6787909E-18
   69.16150       -1.6755146E-18
   69.32300       -1.6710168E-18
   69.48450       -1.6703100E-18
   69.64600       -1.6754818E-18
   69.80750       -1.6842199E-18
   69.96900       -1.6913196E-18
   70.13050       -1.6921773E-18
   70.29200       -1.6859889E-18
   70.45350       -1.6764890E-18
   70.61500       -1.6695902E-18
   70.77650       -1.6693741E-18
   70.93800       -1.6751784E-18
   71.09950       -1.6819628E-18
   71.26100       -1.6838771E-18
   71.42250       -1.6785799E-18
   71.58400       -1.6690824E-18
   71.74550       -1.6616340E-18
   71.90700       -1.6611283E-18
   72.06850       -1.6674468E-18
   72.23000       -1.6755534E-18
   72.39150       -1.6792706E-18
   72.55300       -1.6758833E-18
   72.71450       -1.6681029E-18
   72.87600       -1.6619994E-18
   73.03750       -1.6625705E-18
   73.19900       -1.6702627E-18
   73.36050       -1.6808634E-18
   73.52200       -1.6886006E-18
   73.68350       -1.6900580E-18
   73.84500       -1.6861942E-18
   74.00650       -1.6813067E-18
   74.16800       -1.6799179E-18
   74.32950       -1.6837483E-18
   74.49100       -1.6906848E-18
   74.65250       -1.6962387E-18
   74.81400       -1.6965011E-18
   74.97550       -1.6907333E-18
   75.13700       -1.6819744E-18
   75.29850       -1.6752141E-18
   75.46000       -1.6741839E-18
   75.62150       -1.6788265E-18
   75.78300       -1.6852439E-18
   75.94450       -1.6883329E-18
   76.10600       -1.6854076E-18
   76.26750       -1.6782183E-18
   76.42900       -1.6717805E-18
   76.59050       -1.6707571E-18
   76.75200       -1.6760288E-18
   76.91350       -1.6840367E-18
   77.07500       -1.6894260E-18
   77.23650       -1.6890147E-18
   77.39800       -1.6840885E-18
   77.55950       -1.6793675E-18
   77.72100       -1.6795061E-18
   77.88250       -1.6857901E-18
   78.04400       -1.6953680E-18
   78.20550       -1.7033855E-18
   78.36700       -1.7063011E-18
   78.52850       -1.7040423E-18
   78.69000       -1.6997019E-18
   78.85150       -1.6972335E-18
   79.01300       -1.6988022E-18
   79.17450       -1.7034448E-18
   79.33600       -1.7077661E-18
   79.49750       -1.7081586E-18
   79.65900       -1.7031949E-18
   79.82050       -1.6947393E-18
   79.98200       -1.6869911E-18
   80.14350       -1.6839058E-18
   80.30500       -1.6865561E-18
   80.46650       -1.6922826E-18
   80.62800       -1.6964321E-18
   80.78950       -1.6956856E-18
   80.95100       -1.6906270E-18
   81.11250       -1.6855292E-18
   81.27400       -1.6852900E-18
   81.43550       -1.6916967E-18
   81.59700       -1.7018575E-18
   81.75850       -1.7101138E-18
   81.92000       -1.7120841E-18
   82.08150       -1.7078061E-18
   82.24300       -1.7016075E-18
   82.40450       -1.6988200E-18
   82.56600       -1.7018370E-18
   82.72750       -1.7084327E-18
   82.88900       -1.7134855E-18
   83.05050       -1.7127272E-18
   83.21200       -1.7057712E-18
   83.37350       -1.6963569E-18
   83.53500       -1.6897880E-18
   83.69650       -1.6894098E-18
   83.85800       -1.6944679E-18
   84.01950       -1.7006947E-18
   84.18100       -1.7031859E-18
   84.34250       -1.6997227E-18
   84.50400       -1.6923873E-18
   84.66550       -1.6863435E-18
   84.82700       -1.6864120E-18
   84.98850       -1.6936234E-18
   85.15000       -1.7041677E-18
   85.31150       -1.7117316E-18
   85.47300       -1.7118608E-18
   85.63450       -1.7053210E-18
   85.79600       -1.6978357E-18
   85.95750       -1.6960932E-18
   86.11900       -1.7027546E-18
   86.28050       -1.7142029E-18
   86.44200       -1.7229090E-18
   86.60350       -1.7228450E-18
   86.76500       -1.7139677E-18
   86.92650       -1.7023688E-18
   87.08800       -1.6959054E-18
   87.24950       -1.6985144E-18
   87.41100       -1.7074271E-18
   87.57250       -1.7152902E-18
   87.73400       -1.7155747E-18
   87.89550       -1.7072874E-18
   88.05700       -1.6956566E-18
   88.21850       -1.6884210E-18
   88.38000       -1.6904632E-18
   88.54150       -1.7005099E-18
   88.70300       -1.7120911E-18
   88.86450       -1.7179906E-18
   89.02600       -1.7151305E-18
   89.18750       -1.7066196E-18
   89.34900       -1.6996072E-18
   89.51050       -1.7003586E-18
   89.67200       -1.7098626E-18
   89.83350       -1.7230032E-18
   89.99500       -1.7320102E-18
   90.15650       -1.7319283E-18
   90.31800       -1.7242840E-18
   90.47950       -1.7161680E-18
   90.64100       -1.7151648E-18
   90.80250       -1.7236629E-18
   90.96400       -1.7367964E-18
   91.12550       -1.7457223E-18
   91.28700       -1.7439997E-18
   91.44850       -1.7323565E-18
   91.61000       -1.7182262E-18
   91.77150       -1.7102939E-18
   91.93300       -1.7121159E-18
   92.09450       -1.7195991E-18
   92.25600       -1.7242451E-18
   92.41750       -1.7196941E-18
   92.57900       -1.7066403E-18
   92.74050       -1.6924777E-18
   92.90200       -1.6859996E-18
   93.06350       -1.6910927E-18
   93.22500       -1.7040011E-18
   93.38650       -1.7160531E-18
   93.54800       -1.7197978E-18
   93.70950       -1.7141689E-18
   93.87100       -1.7050791E-18
   94.03250       -1.7011045E-18
   94.19400       -1.7073107E-18
   94.35550       -1.7215236E-18
   94.51700       -1.7356683E-18
   94.67850       -1.7413142E-18
   94.84000       -1.7356270E-18
   95.00150       -1.7235354E-18
   95.16300       -1.7144456E-18
   95.32450       -1.7156334E-18
   95.48600       -1.7269340E-18
   95.64750       -1.7406275E-18
   95.80900       -1.7468367E-18
   95.97050       -1.7406941E-18
   96.13200       -1.7260806E-18
   96.29350       -1.7130421E-18
   96.45500       -1.7106063E-18
   96.61650       -1.7201989E-18
   96.77800       -1.7345386E-18
   96.93950       -1.7429173E-18
   97.10100       -1.7390256E-18
   97.26250       -1.7255827E-18
   97.42400       -1.7123569E-18
   97.58550       -1.7090531E-18
   97.74700       -1.7182876E-18
   97.90850       -1.7337375E-18
   98.07000       -1.7447224E-18
   98.23150       -1.7438179E-18
   98.39300       -1.7320255E-18
   98.55450       -1.7179035E-18
   98.71600       -1.7114125E-18
   98.87750       -1.7169014E-18
   99.03900       -1.7301650E-18
   99.20050       -1.7415479E-18
   99.36200       -1.7428480E-18
   99.52350       -1.7331491E-18
   99.68500       -1.7194983E-18
   99.84650       -1.7119478E-18
   100.0080       -1.7164287E-18
   100.1695       -1.7304638E-18
   100.3310       -1.7448035E-18
   100.4925       -1.7499031E-18
   100.6540       -1.7426981E-18
   100.8155       -1.7287963E-18
   100.9770       -1.7184595E-18
   101.1385       -1.7191931E-18
   101.3000       -1.7303090E-18
   101.4615       -1.7434469E-18
   101.6230       -1.7487169E-18
   101.7845       -1.7419989E-18
   101.9460       -1.7280430E-18
   102.1075       -1.7170949E-18
   102.2690       -1.7174905E-18
   102.4305       -1.7296241E-18
   102.5920       -1.7456700E-18
   102.7535       -1.7552214E-18
   102.9150       -1.7527231E-18
   103.0765       -1.7413116E-18
   103.2380       -1.7303729E-18
   103.3995       -1.7286395E-18
   103.5610       -1.7378366E-18
   103.7225       -1.7514302E-18
   103.8840       -1.7593234E-18
   104.0455       -1.7551308E-18
   104.2070       -1.7408281E-18
   104.3685       -1.7254530E-18
   104.5300       -1.7187763E-18
   104.6915       -1.7244315E-18
   104.8530       -1.7374023E-18
   105.0145       -1.7476560E-18
   105.1760       -1.7473624E-18
   105.3375       -1.7365429E-18
   105.4990       -1.7230937E-18
   105.6605       -1.7171222E-18
   105.8220       -1.7236256E-18
   105.9835       -1.7387897E-18
   106.1450       -1.7525982E-18
   106.3065       -1.7559309E-18
   106.4680       -1.7470735E-18
   106.6295       -1.7329741E-18
   106.7910       -1.7243154E-18
   106.9525       -1.7279081E-18
   107.1140       -1.7418141E-18
   107.2755       -1.7566808E-18
   107.4370       -1.7623563E-18
   107.5985       -1.7550951E-18
   107.7600       -1.7402286E-18
   107.9215       -1.7284011E-18
   108.0830       -1.7280162E-18
   108.2445       -1.7392632E-18
   108.4060       -1.7539885E-18
   108.5675       -1.7615254E-18
   108.7290       -1.7563731E-18
   108.8905       -1.7422283E-18
   109.0520       -1.7294349E-18
   109.2135       -1.7276250E-18
   109.3750       -1.7388054E-18
   109.5365       -1.7558759E-18
   109.6980       -1.7676730E-18
   109.8595       -1.7669041E-18
   110.0210       -1.7552688E-18
   110.1825       -1.7420848E-18
   110.3440       -1.7374761E-18
   110.5055       -1.7450783E-18
   110.6670       -1.7595155E-18
   110.8285       -1.7703961E-18
   110.9900       -1.7698547E-18
   111.1515       -1.7581931E-18
   111.3130       -1.7436138E-18
   111.4745       -1.7363590E-18
   111.6360       -1.7414726E-18
   111.7975       -1.7552950E-18
   111.9590       -1.7680818E-18
   112.1205       -1.7708533E-18
   112.2820       -1.7616633E-18
   112.4435       -1.7469045E-18
   112.6050       -1.7367381E-18
   112.7665       -1.7378384E-18
   112.9280       -1.7485639E-18
   113.0895       -1.7600431E-18
   113.2510       -1.7625323E-18
   113.4125       -1.7525866E-18
   113.5740       -1.7358635E-18
   113.7355       -1.7233523E-18
   113.8970       -1.7235646E-18
   114.0585       -1.7363220E-18
   114.2200       -1.7527655E-18
   114.3815       -1.7617415E-18
   114.5430       -1.7579364E-18
   114.7045       -1.7457461E-18
   114.8660       -1.7359611E-18
   115.0275       -1.7377166E-18
   115.1890       -1.7516670E-18
   115.3505       -1.7694489E-18
   115.5120       -1.7797637E-18
   115.6735       -1.7765476E-18
   115.8350       -1.7632527E-18
   115.9965       -1.7502259E-18
   116.1580       -1.7472410E-18
   116.3195       -1.7566175E-18
   116.4810       -1.7717169E-18
   116.6425       -1.7817115E-18
   116.8040       -1.7791476E-18
   116.9655       -1.7650636E-18
   117.1270       -1.7482129E-18
   117.2885       -1.7390033E-18
   117.4500       -1.7423189E-18
   117.6115       -1.7541500E-18
   117.7730       -1.7644011E-18
   117.9345       -1.7640603E-18
   118.0960       -1.7517986E-18
   118.2575       -1.7352719E-18
   118.4190       -1.7259561E-18
   118.5805       -1.7309672E-18
   118.7420       -1.7477270E-18