  -27.90000        6.2399900E-18
  -27.73850        6.2419752E-18
  -27.57700        6.2450089E-18
  -27.41550        6.2480360E-18
  -27.25400        6.2506660E-18
  -27.09250        6.2532675E-18
  -26.93100        6.2563533E-18
  -26.76950        6.2599188E-18
  -26.60800        6.2633917E-18
  -26.44650        6.2662000E-18
  -26.28500        6.2683619E-18
  -26.12350        6.2704732E-18
  -25.96200        6.2731103E-18
  -25.80050        6.2762391E-18
  -25.63900        6.2792575E-18
  -25.47750        6.2816249E-18
  -25.31600        6.2834381E-18
  -25.15450        6.2853368E-18
  -24.99300        6.2878374E-18
  -24.83150        6.2907706E-18
  -24.67000        6.2934184E-18
  -24.50850        6.2952254E-18
  -24.34700        6.2963797E-18
  -24.18550        6.2976825E-18
  -24.02400        6.2998063E-18
  -23.86250        6.3026630E-18
  -23.70100        6.3054812E-18
  -23.53950        6.3075355E-18
  -23.37800        6.3088147E-18
  -23.21650        6.3099781E-18
  -23.05500        6.3116697E-18
  -22.89350        6.3138936E-18
  -22.73200        6.3160769E-18
  -22.57050        6.3177342E-18
  -22.40900        6.3190167E-18
  -22.24750        6.3205747E-18
  -22.08600        6.3228652E-18
  -21.92450        6.3256065E-18
  -21.76300        6.3279429E-18
  -21.60150        6.3291944E-18
  -21.44000        6.3294826E-18
  -21.27850        6.3296320E-18
  -21.11700        6.3304467E-18
  -20.95550        6.3320692E-18
  -20.79400        6.3340429E-18
  -20.63250        6.3359582E-18
  -20.47100        6.3379881E-18
  -20.30950        6.3407327E-18
  -20.14800        6.3445344E-18
  -19.98650        6.3489863E-18
  -19.82500        6.3531454E-18
  -19.66350        6.3562746E-18
  -19.50200        6.3583893E-18
  -19.34050        6.3600871E-18
  -19.17900        6.3618498E-18
  -19.01750        6.3635187E-18
  -18.85600        6.3644865E-18
  -18.69450        6.3644190E-18
  -18.53300        6.3637614E-18
  -18.37150        6.3634661E-18
  -18.21000        6.3641907E-18
  -18.04850        6.3657326E-18
  -17.88700        6.3672778E-18
  -17.72550        6.3681972E-18
  -17.56400        6.3686224E-18
  -17.40250        6.3692506E-18
  -17.24100        6.3706159E-18
  -17.07950        6.3725494E-18
  -16.91800        6.3743737E-18
  -16.75650        6.3756021E-18
  -16.59500        6.3764384E-18
  -16.43350        6.3775385E-18
  -16.27200        6.3792802E-18
  -16.11050        6.3812989E-18
  -15.94900        6.3827899E-18
  -15.78750        6.3833044E-18
  -15.62600        6.3832382E-18
  -15.46450        6.3835211E-18
  -15.30300        6.3847975E-18
  -15.14150        6.3868886E-18
  -14.98000        6.3890318E-18
  -14.81850        6.3906258E-18
  -14.65700        6.3917487E-18
  -14.49550        6.3929679E-18
  -14.33400        6.3946674E-18
  -14.17250        6.3966257E-18
  -14.01100        6.3982718E-18
  -13.84950        6.3993744E-18
  -13.68800        6.4004155E-18
  -13.52650        6.4022423E-18
  -13.36500        6.4053297E-18
  -13.20350        6.4094015E-18
  -13.04200        6.4137761E-18
  -12.88050        6.4180592E-18
  -12.71900        6.4224668E-18
  -12.55750        6.4274212E-18
  -12.39600        6.4328380E-18
  -12.23450        6.4378491E-18
  -12.07300        6.4413216E-18
  -11.91150        6.4427394E-18
  -11.75000        6.4426364E-18
  -11.58850        6.4421434E-18
  -11.42700        6.4420694E-18
  -11.26550        6.4423750E-18
  -11.10400        6.4424879E-18
  -10.94250        6.4420739E-18
  -10.78100        6.4414763E-18
  -10.61950        6.4413948E-18
  -10.45800        6.4421662E-18
  -10.29650        6.4433871E-18
  -10.13500        6.4442635E-18
  -9.973500        6.4443400E-18
  -9.812000        6.4438805E-18
  -9.650500        6.4435496E-18
  -9.489000        6.4437184E-18
  -9.327500        6.4441067E-18
  -9.166000        6.4441162E-18
  -9.004500        6.4434901E-18
  -8.843000        6.4426029E-18
  -8.681500        6.4420797E-18
  -8.520000        6.4421492E-18
  -8.358500        6.4424060E-18
  -8.197000        6.4422294E-18
  -8.035500        6.4414246E-18
  -7.874000        6.4404357E-18
  -7.712500        6.4399088E-18
  -7.551000        6.4400378E-18
  -7.389500        6.4403641E-18
  -7.228000        6.4402516E-18
  -7.066500        6.4395812E-18
  -6.905000        6.4389583E-18
  -6.743500        6.4392011E-18
  -6.582000        6.4406214E-18
  -6.420500        6.4428097E-18
  -6.259000        6.4451473E-18
  -6.097500        6.4475255E-18
  -5.936000        6.4505281E-18
  -5.774500        6.4548783E-18
  -5.613000        6.4606652E-18
  -5.451500        6.4670812E-18
  -5.290000        6.4729360E-18
  -5.128500        6.4774624E-18
  -4.967000        6.4806921E-18
  -4.805500        6.4830963E-18
  -4.644000        6.4849165E-18
  -4.482500        6.4859004E-18
  -4.321000        6.4856990E-18
  -4.159500        6.4844864E-18
  -3.998000        6.4831112E-18
  -3.836500        6.4825748E-18
  -3.675000        6.4833072E-18
  -3.513500        6.4849235E-18
  -3.352000        6.4866821E-18
  -3.190500        6.4881826E-18
  -3.029000        6.4896443E-18
  -2.867500        6.4915236E-18
  -2.706000        6.4939038E-18
  -2.544500        6.4962989E-18
  -2.383000        6.4980898E-18
  -2.221500        6.4991581E-18
  -2.060000        6.5000597E-18
  -1.898500        6.5015387E-18
  -1.737000        6.5038585E-18
  -1.575500        6.5066027E-18
  -1.414000        6.5091177E-18
  -1.252500        6.5111237E-18
  -1.091000        6.5128674E-18
 -0.9295000        6.5146859E-18
 -0.7680000        6.5164714E-18
 -0.6065000        6.5176323E-18
 -0.4450000        6.5176509E-18
 -0.2835000        6.5166972E-18
 -0.1220000        6.5156388E-18
  3.9500002E-02    6.5153671E-18
  0.2010000        6.5160487E-18
  0.3625000        6.5170405E-18
  0.5240000        6.5175628E-18
  0.6855000        6.5174946E-18
  0.8470000        6.5175111E-18
   1.008500        6.5184384E-18
   1.170000        6.5204476E-18
   1.331500        6.5228721E-18
   1.493000        6.5247953E-18
   1.654500        6.5258351E-18
   1.816000        6.5263471E-18
   1.977500        6.5268765E-18
   2.139000        6.5274336E-18
   2.300500        6.5273397E-18
   2.462000        6.5258318E-18
   2.623500        6.5228216E-18
   2.785000        6.5190716E-18
   2.946500        6.5156086E-18
   3.108000        6.5129757E-18
   3.269500        6.5110347E-18
   3.431000        6.5094544E-18
   3.592500        6.5083162E-18
   3.754000        6.5081714E-18
   3.915500        6.5094834E-18
   4.077000        6.5120211E-18
   4.238500        6.5148687E-18
   4.400000        6.5171013E-18
   4.561500        6.5184839E-18
   4.723000        6.5195497E-18
   4.884500        6.5209969E-18
   5.046000        6.5230417E-18
   5.207500        6.5253867E-18
   5.369000        6.5277930E-18
   5.530500        6.5305856E-18
   5.692000        6.5344936E-18
   5.853500        6.5399042E-18
   6.015000        6.5462797E-18
   6.176500        6.5523603E-18
   6.338000        6.5570467E-18
   6.499500        6.5601602E-18
   6.661000        6.5623816E-18
   6.822500        6.5644520E-18
   6.984000        6.5664352E-18
   7.145500        6.5677557E-18
   7.307000        6.5679646E-18
   7.468500        6.5674133E-18
   7.630000        6.5671155E-18
   7.791500        6.5679001E-18
   7.953000        6.5696719E-18
   8.114500        6.5715273E-18
   8.276000        6.5726059E-18
   8.437500        6.5728437E-18
   8.599000        6.5729045E-18
   8.760500        6.5733777E-18
   8.922000        6.5740692E-18
   9.083500        6.5741114E-18
   9.245000        6.5727838E-18
   9.406500        6.5702228E-18
   9.568000        6.5673000E-18
   9.729500        6.5647990E-18
   9.891000        6.5627290E-18
   10.05250        6.5604865E-18
   10.21400        6.5576778E-18
   10.37550        6.5547525E-18
   10.53700        6.5527805E-18
   10.69850        6.5525708E-18
   10.86000        6.5540088E-18
   11.02150        6.5562373E-18
   11.18300        6.5584740E-18
   11.34450        6.5606056E-18
   11.50600        6.5629746E-18
   11.66750        6.5656485E-18
   11.82900        6.5680196E-18
   11.99050        6.5692633E-18
   12.15200        6.5692459E-18
   12.31350        6.5689221E-18
   12.47500        6.5697071E-18
   12.63650        6.5723437E-18
   12.79800        6.5763328E-18
   12.95950        6.5804662E-18
   13.12100        6.5839309E-18
   13.28250        6.5868905E-18
   13.44400        6.5899854E-18
   13.60550        6.5932892E-18
   13.76700        6.5958485E-18
   13.92850        6.5963506E-18
   14.09000        6.5943405E-18
   14.25150        6.5908089E-18
   14.41300        6.5875535E-18
   14.57450        6.5858913E-18
   14.73600        6.5859161E-18
   14.89750        6.5869066E-18
   15.05900        6.5883434E-18
   15.22050        6.5904515E-18
   15.38200        6.5937462E-18
   15.54350        6.5981493E-18
   15.70500        6.6026731E-18
   15.86650        6.6060774E-18
   16.02800        6.6078331E-18
   16.18950        6.6084108E-18
   16.35100        6.6086032E-18
   16.51250        6.6086036E-18
   16.67400        6.6078351E-18
   16.83550        6.6057399E-18
   16.99700        6.6026731E-18
   17.15850        6.5999066E-18
   17.32000        6.5986394E-18
   17.48150        6.5989909E-18
   17.64300        6.6000133E-18
   17.80450        6.6007528E-18
   17.96600        6.6012930E-18
   18.12750        6.6027066E-18
   18.28900        6.6059144E-18
   18.45050        6.6105669E-18
   18.61200        6.6150870E-18
   18.77350        6.6178721E-18
   18.93500        6.6185252E-18
   19.09650        6.6179565E-18
   19.25800        6.6173398E-18
   19.41950        6.6170185E-18
   19.58100        6.6164535E-18
   19.74250        6.6151772E-18
   19.90400        6.6136577E-18
   20.06550        6.6131001E-18
   20.22700        6.6143347E-18
   20.38850        6.6169238E-18
   20.55000        6.6194119E-18
   20.71150        6.6205009E-18
   20.87300        6.6199934E-18
   21.03450        6.6186344E-18
   21.19600        6.6171029E-18
   21.35750        6.6152814E-18
   21.51900        6.6125840E-18
   21.68050        6.6089824E-18
   21.84200        6.6055691E-18
   22.00350        6.6039519E-18
   22.16500        6.6049971E-18
   22.32650        6.6081486E-18
   22.48800        6.6119958E-18
   22.64950        6.6154969E-18
   22.81100        6.6186389E-18
   22.97250        6.6219100E-18
   23.13400        6.6252444E-18
   23.29550        6.6276424E-18
   23.45700        6.6279621E-18
   23.61850        6.6261332E-18
   23.78000        6.6235011E-18
   23.94150        6.6218575E-18
   24.10300        6.6220064E-18
   24.26450        6.6232633E-18
   24.42600        6.6243585E-18
   24.58750        6.6248432E-18
   24.74900        6.6256013E-18
   24.91050        6.6279617E-18
   25.07200        6.6323300E-18
   25.23350        6.6376893E-18
   25.39500        6.6424344E-18
   25.55650        6.6456708E-18
   25.71800        6.6477234E-18
   25.87950        6.6494349E-18
   26.04100        6.6510801E-18
   26.20250        6.6520541E-18
   26.36400        6.6516120E-18
   26.52550        6.6498249E-18
   26.68700        6.6476978E-18
   26.84850        6.6463226E-18
   27.01000        6.6459959E-18
   27.17150        6.6462420E-18
   27.33300        6.6466737E-18
   27.49450        6.6476763E-18
   27.65600        6.6500536E-18
   27.81750        6.6539211E-18
   27.97900        6.6580256E-18
   28.14050        6.6603433E-18
   28.30200        6.6595682E-18
   28.46350        6.6561338E-18
   28.62500        6.6517808E-18
   28.78650        6.6480675E-18
   28.94800        6.6452394E-18
   29.10950        6.6425006E-18
   29.27100        6.6393329E-18
   29.43250        6.6364448E-18
   29.59400        6.6353616E-18
   29.75550        6.6370363E-18
   29.91700        6.6408835E-18
   30.07850        6.6451641E-18
   30.24000        6.6483508E-18
   30.40150        6.6501479E-18
   30.56300        6.6512778E-18
   30.72450        6.6524111E-18
   30.88600        6.6534161E-18
   31.04750        6.6536787E-18
   31.20900        6.6530554E-18
   31.37050        6.6523374E-18
   31.53200        6.6526691E-18
   31.69350        6.6545038E-18
   31.85500        6.6572149E-18
   32.01650        6.6597804E-18
   32.17800        6.6618107E-18
   32.33950        6.6638332E-18
   32.50100        6.6665368E-18
   32.66250        6.6698046E-18
   32.82400        6.6725980E-18
   32.98550        6.6738723E-18
   33.14700        6.6735745E-18
   33.30850        6.6726716E-18
   33.47000        6.6721166E-18
   33.63150        6.6718192E-18
   33.79300        6.6707306E-18
   33.95450        6.6680373E-18
   34.11600        6.6642704E-18
   34.27750        6.6611556E-18
   34.43900        6.6602548E-18
   34.60050        6.6616676E-18
   34.76200        6.6640280E-18
   34.92350        6.6657709E-18
   35.08500        6.6664392E-18
   35.24650        6.6668143E-18
   35.40800        6.6678434E-18
   35.56950        6.6695093E-18
   35.73100        6.6707679E-18
   35.89250        6.6705731E-18
   36.05400        6.6689373E-18
   36.21550        6.6670071E-18
   36.37700        6.6661667E-18
   36.53850        6.6671196E-18
   36.70000        6.6697748E-18
   36.86150        6.6738123E-18
   37.02300        6.6791112E-18
   37.18450        6.6855057E-18
   37.34600        6.6922336E-18
   37.50750        6.6978990E-18
   37.66900        6.7012300E-18
   37.83050        6.7019927E-18
   37.99200        6.7011039E-18
   38.15350        6.6997291E-18
   38.31500        6.6981881E-18
   38.47650        6.6957954E-18
   38.63800        6.6918279E-18
   38.79950        6.6866915E-18
   38.96100        6.6820407E-18
   39.12250        6.6796282E-18
   39.28400        6.6799260E-18
   39.44550        6.6818099E-18
   39.60700        6.6836127E-18
   39.76850        6.6845326E-18
   39.93000        6.6850955E-18
   40.09150        6.6863366E-18
   40.25300        6.6885849E-18
   40.41450        6.6910474E-18
   40.57600        6.6925153E-18
   40.73750        6.6924160E-18
   40.89900        6.6911628E-18
   41.06050        6.6895660E-18
   41.22200        6.6880216E-18
   41.38350        6.6863441E-18
   41.54500        6.6843278E-18
   41.70650        6.6823190E-18
   41.86800        6.6811105E-18
   42.02950        6.6812635E-18
   42.19100        6.6826135E-18
   42.35250        6.6844933E-18
   42.51400        6.6864152E-18
   42.67550        6.6884402E-18
   42.83700        6.6908249E-18
   42.99850        6.6933772E-18
   43.16000        6.6953235E-18
   43.32150        6.6959758E-18
   43.48300        6.6955742E-18
   43.64450        6.6953843E-18
   43.80600        6.6967860E-18
   43.96750        6.7001452E-18
   44.12900        6.7045425E-18
   44.29050        6.7086370E-18
   44.45200        6.7118312E-18
   44.61350        6.7146006E-18
   44.77500        6.7176847E-18
   44.93650        6.7209790E-18
   45.09800        6.7232541E-18
   45.25950        6.7230246E-18
   45.42100        6.7197866E-18
   45.58250        6.7144988E-18
   45.74400        6.7089137E-18
   45.90550        6.7044093E-18
   46.06700        6.7013496E-18
   46.22850        6.6993639E-18
   46.39000        6.6980690E-18
   46.55150        6.6974589E-18
   46.71300        6.6977269E-18
   46.87450        6.6988999E-18
   47.03600        6.7007759E-18
   47.19750        6.7031656E-18
   47.35900        6.7060248E-18
   47.52050        6.7092326E-18
   47.68200        6.7122857E-18
   47.84350        6.7143929E-18
   48.00500        6.7150733E-18
   48.16650        6.7147127E-18
   48.32800        6.7144281E-18
   48.48950        6.7151895E-18
   48.65100        6.7169336E-18
   48.81250        6.7185640E-18
   48.97400        6.7189371E-18
   49.13550        6.7179829E-18
   49.29700        6.7168993E-18
   49.45850        6.7171884E-18
   49.62000        6.7193709E-18
   49.78150        6.7225154E-18
   49.94300        6.7249668E-18
   50.10450        6.7255686E-18
   50.26600        6.7243377E-18
   50.42750        6.7221374E-18
   50.58900        6.7198110E-18
   50.75050        6.7176500E-18
   50.91200        6.7155564E-18
   51.07350        6.7135711E-18
   51.23500        6.7121199E-18
   51.39650        6.7117542E-18
   51.55800        6.7127316E-18
   51.71950        6.7148839E-18
   51.88100        6.7178303E-18
   52.04250        6.7211949E-18
   52.20400        6.7245648E-18
   52.36550        6.7273205E-18
   52.52700        6.7287143E-18
   52.68850        6.7282805E-18
   52.85000        6.7262407E-18
   53.01150        6.7234452E-18
   53.17300        6.7207970E-18
   53.33450        6.7186703E-18
   53.49600        6.7168819E-18
   53.65750        6.7152416E-18
   53.81900        6.7140935E-18
   53.98050        6.7142168E-18
   54.14200        6.7161003E-18
   54.30350        6.7193019E-18
   54.46500        6.7226011E-18
   54.62650        6.7249056E-18
   54.78800        6.7261253E-18
   54.94950        6.7271832E-18
   55.11100        6.7291408E-18
   55.27250        6.7322009E-18
   55.43400        6.7354679E-18
   55.59550        6.7376458E-18
   55.75700        6.7380404E-18
   55.91850        6.7370254E-18
   56.08000        6.7356780E-18
   56.24150        6.7350084E-18
   56.40300        6.7354257E-18
   56.56450        6.7367272E-18
   56.72600        6.7384106E-18
   56.88750        6.7399574E-18
   57.04900        6.7409715E-18
   57.21050        6.7412883E-18
   57.37200        6.7410790E-18
   57.53350        6.7407833E-18
   57.69500        6.7407531E-18
   57.85650        6.7408139E-18
   58.01800        6.7401898E-18
   58.17950        6.7380586E-18
   58.34100        6.7343942E-18
   58.50250        6.7303608E-18
   58.66400        6.7277639E-18
   58.82550        6.7278528E-18
   58.98700        6.7304154E-18
   59.14850        6.7339301E-18
   59.31000        6.7366553E-18
   59.47150        6.7377550E-18
   59.63300        6.7375693E-18
   59.79450        6.7369440E-18
   59.95600        6.7363505E-18
   60.11750        6.7355907E-18
   60.27900        6.7342436E-18
   60.44050        6.7323068E-18
   60.60200        6.7303981E-18
   60.76350        6.7293724E-18
   60.92500        6.7297843E-18
   61.08650        6.7316773E-18
   61.24800        6.7347610E-18
   61.40950        6.7386666E-18
   61.57100        6.7429915E-18
   61.73250        6.7472221E-18
   61.89400        6.7507868E-18
   62.05550        6.7533279E-18
   62.21700        6.7549083E-18
   62.37850        6.7558707E-18
   62.54000        6.7564137E-18
   62.70150        6.7563215E-18
   62.86300        6.7551767E-18
   63.02450        6.7529023E-18
   63.18600        6.7500593E-18
   63.34750        6.7475451E-18
   63.50900        6.7459151E-18
   63.67050        6.7449962E-18
   63.83200        6.7442141E-18
   63.99350        6.7433401E-18
   64.15500        6.7428997E-18
   64.31650        6.7437616E-18
   64.47800        6.7462444E-18
   64.63950        6.7496015E-18
   64.80100        6.7524193E-18
   64.96250        6.7536232E-18
   65.12400        6.7532026E-18
   65.28550        6.7520537E-18
   65.44700        6.7511537E-18
   65.60850        6.7508592E-18
   65.77000        6.7508865E-18
   65.93150        6.7508509E-18
   66.09300        6.7507393E-18
   66.25450        6.7508807E-18
   66.41600        6.7515553E-18
   66.57750        6.7527117E-18
   66.73900        6.7540587E-18
   66.90050        6.7553028E-18
   67.06200        6.7562127E-18
   67.22350        6.7564878E-18
   67.38500        6.7557619E-18
   67.54650        6.7539529E-18
   67.70800        6.7516880E-18
   67.86950        6.7502454E-18
   68.03100        6.7508021E-18
   68.19250        6.7535219E-18
   68.35400        6.7573141E-18
   68.51550        6.7606125E-18
   68.67700        6.7625733E-18
   68.83850        6.7636404E-18
   69.00000        6.7649432E-18
   69.16150        6.7670827E-18
   69.32300        6.7694389E-18
   69.48450        6.7706433E-18
   69.64600        6.7697528E-18
   69.80750        6.7670273E-18
   69.96900        6.7636391E-18
   70.13050        6.7606878E-18
   70.29200        6.7584829E-18
   70.45350        6.7566764E-18
   70.61500        6.7549438E-18
   70.77650        6.7534177E-18
   70.93800        6.7524821E-18
   71.09950        6.7522770E-18
   71.26100        6.7525570E-18
   71.42250        6.7530732E-18
   71.58400        6.7539909E-18
   71.74550        6.7557656E-18
   71.90700        6.7585268E-18
   72.06850        6.7616432E-18
   72.23000        6.7640445E-18
   72.39150        6.7650880E-18
   72.55300        6.7651281E-18
   72.71450        6.7651851E-18
   72.87600        6.7660161E-18
   73.03750        6.7674992E-18
   73.19900        6.7689447E-18
   73.36050        6.7699526E-18
   73.52200        6.7708728E-18
   73.68350        6.7723349E-18
   73.84500        6.7743507E-18
   74.00650        6.7759910E-18
   74.16800        6.7761118E-18
   74.32950        6.7744504E-18
   74.49100        6.7719862E-18
   74.65250        6.7701065E-18
   74.81400        6.7693525E-18
   74.97550        6.7689844E-18
   75.13700        6.7678160E-18
   75.29850        6.7655115E-18
   75.46000        6.7630535E-18
   75.62150        6.7619095E-18
   75.78300        6.7626995E-18
   75.94450        6.7646404E-18
   76.10600        6.7662563E-18
   76.26750        6.7666137E-18
   76.42900        6.7659036E-18
   76.59050        6.7649403E-18
   76.75200        6.7642620E-18
   76.91350        6.7637885E-18
   77.07500        6.7632938E-18
   77.23650        6.7629762E-18
   77.39800        6.7633732E-18
   77.55950        6.7646677E-18
   77.72100        6.7662410E-18
   77.88250        6.7671017E-18
   78.04400        6.7668767E-18
   78.20550        6.7663093E-18
   78.36700        6.7666385E-18
   78.52850        6.7683673E-18
   78.69000        6.7706660E-18
   78.85150        6.7720685E-18
   79.01300        6.7718514E-18
   79.17450        6.7707335E-18
   79.33600        6.7701768E-18
   79.49750        6.7709713E-18
   79.65900        6.7724987E-18
   79.82050        6.7734102E-18
   79.98200        6.7729834E-18
   80.14350        6.7717840E-18
   80.30500        6.7709647E-18
   80.46650        6.7709853E-18
   80.62800        6.7711090E-18
   80.78950        6.7702090E-18
   80.95100        6.7680352E-18
   81.11250        6.7655983E-18
   81.27400        6.7642480E-18
   81.43550        6.7643766E-18
   81.59700        6.7650863E-18
   81.75850        6.7651566E-18
   81.92000        6.7643207E-18
   82.08150        6.7635482E-18
   82.24300        6.7640689E-18
   82.40450        6.7661790E-18
   82.56600        6.7690150E-18
   82.72750        6.7714564E-18
   82.88900        6.7731360E-18
   83.05050        6.7745100E-18
   83.21200        6.7760233E-18
   83.37350        6.7773981E-18
   83.53500        6.7778869E-18
   83.69650        6.7772074E-18
   83.85800        6.7760481E-18
   84.01950        6.7754707E-18
   84.18100        6.7757590E-18
   84.34250        6.7760047E-18
   84.50400        6.7749835E-18
   84.66550        6.7725429E-18
   84.82700        6.7700192E-18
   84.98850        6.7691258E-18
   85.15000        6.7703166E-18
   85.31150        6.7722460E-18
   85.47300        6.7729280E-18
   85.63450        6.7715491E-18
   85.79600        6.7691908E-18
   85.95750        6.7677974E-18
   86.11900        6.7684161E-18
   86.28050        6.7703811E-18
   86.44200        6.7721434E-18
   86.60350        6.7728014E-18
   86.76500        6.7728051E-18
   86.92650        6.7732630E-18
   87.08800        6.7747031E-18
   87.24950        6.7766040E-18
   87.41100        6.7780610E-18
   87.57250        6.7787211E-18
   87.73400        6.7789366E-18
   87.89550        6.7790499E-18
   88.05700        6.7787600E-18
   88.21850        6.7773923E-18
   88.38000        6.7748536E-18
   88.54150        6.7721426E-18
   88.70300        6.7707153E-18
   88.86450        6.7712103E-18
   89.02600        6.7728490E-18
   89.18750        6.7741882E-18
   89.34900        6.7745439E-18
   89.51050        6.7746340E-18
   89.67200        6.7757644E-18
   89.83350        6.7783779E-18
   89.99500        6.7814459E-18
   90.15650        6.7833542E-18
   90.31800        6.7833831E-18
   90.47950        6.7822904E-18
   90.64100        6.7814301E-18
   90.80250        6.7813565E-18
   90.96400        6.7813607E-18
   91.12550        6.7803850E-18
   91.28700        6.7783237E-18
   91.44850        6.7763062E-18
   91.61000        6.7756539E-18
   91.77150        6.7765825E-18
   91.93300        6.7779796E-18
   92.09450        6.7784821E-18
   92.25600        6.7777417E-18
   92.41750        6.7766255E-18
   92.57900        6.7762239E-18
   92.74050        6.7767425E-18
   92.90200        6.7773964E-18
   93.06350        6.7773000E-18
   93.22500        6.7763360E-18
   93.38650        6.7751274E-18
   93.54800        6.7742779E-18
   93.70950        6.7738350E-18
   93.87100        6.7735864E-18
   94.03250        6.7737461E-18
   94.19400        6.7750704E-18
   94.35550        6.7780763E-18
   94.51700        6.7821361E-18
   94.67850        6.7855656E-18
   94.84000        6.7868519E-18
   95.00150        6.7859540E-18
   95.16300        6.7843336E-18
   95.32450        6.7835982E-18
   95.48600        6.7839903E-18
   95.64750        6.7842033E-18
   95.80900        6.7827164E-18
   95.97050        6.7793680E-18
   96.13200        6.7756577E-18
   96.29350        6.7735120E-18
   96.45500        6.7737130E-18
   96.61650        6.7754376E-18
   96.77800        6.7771954E-18
   96.93950        6.7780983E-18
   97.10100        6.7782666E-18
   97.26250        6.7781901E-18
   97.42400        6.7779568E-18
   97.58550        6.7772442E-18
   97.74700        6.7759724E-18
   97.90850        6.7747242E-18
   98.07000        6.7743222E-18
   98.23150        6.7749905E-18
   98.39300        6.7760617E-18
   98.55450        6.7766706E-18
   98.71600        6.7767438E-18
   98.87750        6.7771842E-18
   99.03900        6.7789602E-18
   99.20050        6.7819777E-18
   99.36200        6.7849564E-18
   99.52350        6.7865165E-18
   99.68500        6.7864238E-18
   99.84650        6.7857344E-18
   100.0080        6.7856566E-18
   100.1695        6.7863064E-18
   100.3310        6.7866228E-18
   100.4925        6.7855458E-18
   100.6540        6.7832351E-18
   100.8155        6.7810790E-18
   100.9770        6.7804582E-18
   101.1385        6.7815286E-18
   101.3000        6.7832193E-18
   101.4615        6.7843993E-18
   101.6230        6.7849800E-18
   101.7845        6.7858250E-18
   101.9460        6.7876340E-18
   102.1075        6.7900055E-18
   102.2690        6.7916748E-18
   102.4305        6.7916380E-18
   102.5920        6.7900006E-18
   102.7535        6.7877118E-18
   102.9150        6.7855818E-18
   103.0765        6.7836863E-18
   103.2380        6.7817627E-18
   103.3995        6.7800293E-18
   103.5610        6.7793705E-18
   103.7225        6.7805467E-18
   103.8840        6.7832471E-18
   104.0455        6.7860905E-18
   104.2070        6.7877250E-18
   104.3685        6.7879864E-18
   104.5300        6.7878925E-18
   104.6915        6.7884438E-18
   104.8530        6.7894323E-18
   105.0145        6.7895266E-18
   105.1760        6.7876092E-18
   105.3375        6.7840498E-18
   105.4990        6.7805868E-18
   105.6605        6.7788845E-18
   105.8220        6.7791384E-18
   105.9835        6.7800612E-18
   106.1450        6.7801836E-18
   106.3065        6.7791748E-18
   106.4680        6.7779287E-18
   106.6295        6.7774866E-18
   106.7910        6.7779887E-18
   106.9525        6.7787005E-18
   107.1140        6.7789478E-18
   107.2755        6.7788584E-18
   107.4370        6.7791124E-18
   107.5985        6.7800599E-18
   107.7600        6.7812535E-18
   107.9215        6.7819637E-18
   108.0830        6.7820886E-18
   108.2445        6.7823984E-18
   108.4060        6.7837537E-18
   108.5675        6.7860897E-18
   108.7290        6.7882895E-18
   108.8905        6.7891680E-18
   109.0520        6.7885989E-18
   109.2135        6.7876216E-18
   109.3750        6.7873689E-18
   109.5365        6.7878793E-18
   109.6980        6.7880137E-18
   109.8595        6.7865736E-18
   110.0210        6.7835105E-18
   110.1825        6.7800500E-18
   110.3440        6.7776367E-18
   110.5055        6.7768116E-18
   110.6670        6.7770821E-18
   110.8285        6.7777955E-18
   110.9900        6.7789916E-18
   111.1515        6.7812920E-18
   111.3130        6.7849986E-18
   111.4745        6.7894071E-18
   111.6360        6.7931368E-18
   111.7975        6.7952002E-18
   111.9590        6.7957437E-18
   112.1205        6.7957375E-18
   112.2820        6.7959650E-18
   112.4435        6.7963359E-18
   112.6050        6.7961800E-18
   112.7665        6.7951088E-18
   112.9280        6.7935086E-18
   113.0895        6.7921711E-18
   113.2510        6.7915019E-18
   113.4125        6.7911681E-18
   113.5740        6.7905167E-18
   113.7355        6.7892544E-18
   113.8970        6.7876493E-18
   114.0585        6.7860818E-18
   114.2200        6.7845135E-18
   114.3815        6.7825340E-18
   114.5430        6.7799669E-18
   114.7045        6.7773439E-18
   114.8660        6.7756271E-18
   115.0275        6.7753595E-18
   115.1890        6.7760758E-18
   115.3505        6.7766271E-18
   115.5120        6.7761664E-18
   115.6735        6.7748843E-18
   115.8350        6.7738300E-18
   115.9965        6.7739934E-18
   116.1580        6.7755228E-18
   116.3195        6.7777244E-18
   116.4810        6.7797402E-18
   116.6425        6.7811911E-18
   116.8040        6.7822354E-18
   116.9655        6.7831449E-18
   117.1270        6.7839320E-18
   117.2885        6.7844006E-18
   117.4500        6.7844638E-18
   117.6115        6.7843013E-18
   117.7730        6.7841950E-18
   117.9345        6.7842934E-18
   118.0960        6.7846102E-18
   118.2575        6.7852459E-18
   118.4190        6.7865049E-18
   118.5805        6.7886663E-18
   118.7420        6.7915974E-18