  -27.90000        9.0059446E-18
  -27.73850        9.0340820E-18
  -27.57700        9.0742052E-18
  -27.41550        9.1056034E-18
  -27.25400        9.1168944E-18
  -27.09250        9.1132192E-18
  -26.93100        9.1117998E-18
  -26.76950        9.1290754E-18
  -26.60800        9.1685154E-18
  -26.44650        9.2176888E-18
  -26.28500        9.2566441E-18
  -26.12350        9.2717136E-18
  -25.96200        9.2650391E-18
  -25.80050        9.2531327E-18
  -25.63900        9.2554653E-18
  -25.47750        9.2810707E-18
  -25.31600        9.3224984E-18
  -25.15450        9.3612981E-18
  -24.99300        9.3810892E-18
  -24.83150        9.3790370E-18
  -24.67000        9.3676955E-18
  -24.50850        9.3660015E-18
  -24.34700        9.3858472E-18
  -24.18550        9.4236973E-18
  -24.02400        9.4631522E-18
  -23.86250        9.4865804E-18
  -23.70100        9.4875780E-18
  -23.53950        9.4754623E-18
  -23.37800        9.4686438E-18
  -23.21650        9.4815900E-18
  -23.05500        9.5146086E-18
  -22.89350        9.5536482E-18
  -22.73200        9.5802264E-18
  -22.57050        9.5844599E-18
  -22.40900        9.5719794E-18
  -22.24750        9.5598852E-18
  -22.08600        9.5646290E-18
  -21.92450        9.5904453E-18
  -21.76300        9.6265046E-18
  -21.60150        9.6547967E-18
  -21.44000        9.6631041E-18
  -21.27850        9.6538446E-18
  -21.11700        9.6424485E-18
  -20.95550        9.6464033E-18
  -20.79400        9.6727068E-18
  -20.63250        9.7126555E-18
  -20.47100        9.7477098E-18
  -20.30950        9.7623575E-18
  -20.14800        9.7548996E-18
  -19.98650        9.7385421E-18
  -19.82500        9.7320107E-18
  -19.66350        9.7463300E-18
  -19.50200        9.7771301E-18
  -19.34050        9.8079393E-18
  -19.17900        9.8221378E-18
  -19.01750        9.8150844E-18
  -18.85600        9.7977806E-18
  -18.69450        9.7893790E-18
  -18.53300        9.8037744E-18
  -18.37150        9.8397055E-18
  -18.21000        9.8813838E-18
  -18.04850        9.9092656E-18
  -17.88700        9.9134362E-18
  -17.72550        9.9002319E-18
  -17.56400        9.8874594E-18
  -17.40250        9.8915995E-18
  -17.24100        9.9160360E-18
  -17.07950        9.9486063E-18
  -16.91800        9.9702189E-18
  -16.75650        9.9684934E-18
  -16.59500        9.9468130E-18
  -16.43350        9.9223764E-18
  -16.27200        9.9146009E-18
  -16.11050        9.9319576E-18
  -15.94900        9.9664676E-18
  -15.78750        9.9996772E-18
  -15.62600        1.0015880E-17
  -15.46450        1.0013259E-17
  -15.30300        1.0005133E-17
  -15.14150        1.0010460E-17
  -14.98000        1.0040301E-17
  -14.81850        1.0089789E-17
  -14.65700        1.0141212E-17
  -14.49550        1.0176014E-17
  -14.33400        1.0187273E-17
  -14.17250        1.0183930E-17
  -14.01100        1.0183913E-17
  -13.84950        1.0201097E-17
  -13.68800        1.0235310E-17
  -13.52650        1.0272394E-17
  -13.36500        1.0294192E-17
  -13.20350        1.0291370E-17
  -13.04200        1.0270058E-17
  -12.88050        1.0247673E-17
  -12.71900        1.0240942E-17
  -12.55750        1.0254546E-17
  -12.39600        1.0278322E-17
  -12.23450        1.0294848E-17
  -12.07300        1.0291996E-17
  -11.91150        1.0271547E-17
  -11.75000        1.0247861E-17
  -11.58850        1.0237639E-17
  -11.42700        1.0248094E-17
  -11.26550        1.0271911E-17
  -11.10400        1.0292498E-17
  -10.94250        1.0295767E-17
  -10.78100        1.0280070E-17
  -10.61950        1.0257303E-17
  -10.45800        1.0244483E-17
  -10.29650        1.0251818E-17
  -10.13500        1.0275721E-17
  -9.973500        1.0301625E-17
  -9.812000        1.0314509E-17
  -9.650500        1.0309600E-17
  -9.489000        1.0295699E-17
  -9.327500        1.0288830E-17
  -9.166000        1.0300807E-17
  -9.004500        1.0330822E-17
  -8.843000        1.0366001E-17
  -8.681500        1.0390466E-17
  -8.520000        1.0396485E-17
  -8.358500        1.0389796E-17
  -8.197000        1.0385396E-17
  -8.035500        1.0396782E-17
  -7.874000        1.0426280E-17
  -7.712500        1.0463286E-17
  -7.551000        1.0491664E-17
  -7.389500        1.0501081E-17
  -7.228000        1.0494287E-17
  -7.066500        1.0485202E-17
  -6.905000        1.0489200E-17
  -6.743500        1.0512416E-17
  -6.582000        1.0547626E-17
  -6.420500        1.0579569E-17
  -6.259000        1.0595883E-17
  -6.097500        1.0595950E-17
  -5.936000        1.0591355E-17
  -5.774500        1.0597671E-17
  -5.613000        1.0623312E-17
  -5.451500        1.0663319E-17
  -5.290000        1.0702399E-17
  -5.128500        1.0725117E-17
  -4.967000        1.0726162E-17
  -4.805500        1.0713588E-17
  -4.644000        1.0702888E-17
  -4.482500        1.0706094E-17
  -4.321000        1.0723540E-17
  -4.159500        1.0743964E-17
  -3.998000        1.0752828E-17
  -3.836500        1.0742960E-17
  -3.675000        1.0720085E-17
  -3.513500        1.0699362E-17
  -3.352000        1.0695323E-17
  -3.190500        1.0712169E-17
  -3.029000        1.0741136E-17
  -2.867500        1.0766672E-17
  -2.706000        1.0777103E-17
  -2.544500        1.0772376E-17
  -2.383000        1.0763585E-17
  -2.221500        1.0764743E-17
  -2.060000        1.0782661E-17
  -1.898500        1.0812015E-17
  -1.737000        1.0838974E-17
  -1.575500        1.0850761E-17
  -1.414000        1.0844411E-17
  -1.252500        1.0828651E-17
  -1.091000        1.0817691E-17
 -0.9295000        1.0821331E-17
 -0.7680000        1.0838292E-17
 -0.6065000        1.0857335E-17
 -0.4450000        1.0865273E-17
 -0.2835000        1.0856229E-17
 -0.1220000        1.0835722E-17
  3.9500002E-02    1.0816818E-17
  0.2010000        1.0811149E-17
  0.3625000        1.0821075E-17
  0.5240000        1.0838429E-17
  0.6855000        1.0850619E-17
  0.8470000        1.0849705E-17
   1.008500        1.0838062E-17
   1.170000        1.0826653E-17
   1.331500        1.0827162E-17
   1.493000        1.0843574E-17
   1.654500        1.0869156E-17
   1.816000        1.0890992E-17
   1.977500        1.0898892E-17
   2.139000        1.0892435E-17
   2.300500        1.0881201E-17
   2.462000        1.0878088E-17
   2.623500        1.0890416E-17
   2.785000        1.0915082E-17
   2.946500        1.0941106E-17
   3.108000        1.0957676E-17
   3.269500        1.0961972E-17
   3.431000        1.0961204E-17
   3.592500        1.0967424E-17
   3.754000        1.0988780E-17
   3.915500        1.1023369E-17
   4.077000        1.1060069E-17
   4.238500        1.1085836E-17
   4.400000        1.1094416E-17
   4.561500        1.1090435E-17
   4.723000        1.1086003E-17
   4.884500        1.1092229E-17
   5.046000        1.1111541E-17
   5.207500        1.1136181E-17
   5.369000        1.1153912E-17
   5.530500        1.1156924E-17
   5.692000        1.1147653E-17
   5.853500        1.1137362E-17
   6.015000        1.1138441E-17
   6.176500        1.1155746E-17
   6.338000        1.1183092E-17
   6.499500        1.1207378E-17
   6.661000        1.1217528E-17
   6.822500        1.1212025E-17
   6.984000        1.1199807E-17
   7.145500        1.1193878E-17
   7.307000        1.1202120E-17
   7.468500        1.1221724E-17
   7.630000        1.1241113E-17
   7.791500        1.1248024E-17
   7.953000        1.1238071E-17
   8.114500        1.1217836E-17
   8.276000        1.1200329E-17
   8.437500        1.1196025E-17
   8.599000        1.1205732E-17
   8.760500        1.1220269E-17
   8.922000        1.1227149E-17
   9.083500        1.1219594E-17
   9.245000        1.1201599E-17
   9.406500        1.1185502E-17
   9.568000        1.1183783E-17
   9.729500        1.1200710E-17
   9.891000        1.1229612E-17
   10.05250        1.1257566E-17
   10.21400        1.1274210E-17
   10.37550        1.1278551E-17
   10.53700        1.1279101E-17
   10.69850        1.1287324E-17
   10.86000        1.1309078E-17
   11.02150        1.1340060E-17
   11.18300        1.1368465E-17
   11.34450        1.1383019E-17
   11.50600        1.1380754E-17
   11.66750        1.1369106E-17
   11.82900        1.1360868E-17
   11.99050        1.1365532E-17
   12.15200        1.1383042E-17
   12.31350        1.1404261E-17
   12.47500        1.1417705E-17
   12.63650        1.1417727E-17
   12.79800        1.1408415E-17
   12.95950        1.1400527E-17
   13.12100        1.1403747E-17
   13.28250        1.1419778E-17
   13.44400        1.1441143E-17
   13.60550        1.1456479E-17
   13.76700        1.1458560E-17
   13.92850        1.1449380E-17
   14.09000        1.1438785E-17
   14.25150        1.1437619E-17
   14.41300        1.1450242E-17
   14.57450        1.1471615E-17
   14.73600        1.1490970E-17
   14.89750        1.1499450E-17
   15.05900        1.1496364E-17
   15.22050        1.1489642E-17
   15.38200        1.1490196E-17
   15.54350        1.1504138E-17
   15.70500        1.1528353E-17
   15.86650        1.1552594E-17
   16.02800        1.1566643E-17
   16.18950        1.1567502E-17
   16.35100        1.1561508E-17
   16.51250        1.1559799E-17
   16.67400        1.1570286E-17
   16.83550        1.1591803E-17
   16.99700        1.1614601E-17
   17.15850        1.1626930E-17
   17.32000        1.1623122E-17
   17.48150        1.1607508E-17
   17.64300        1.1591413E-17
   17.80450        1.1585353E-17
   17.96600        1.1591883E-17
   18.12750        1.1604155E-17
   18.28900        1.1611141E-17
   18.45050        1.1605876E-17
   18.61200        1.1590883E-17
   18.77350        1.1576923E-17
   18.93500        1.1575862E-17
   19.09650        1.1592538E-17
   19.25800        1.1621266E-17
   19.41950        1.1649422E-17
   19.58100        1.1665697E-17
   19.74250        1.1667380E-17
   19.90400        1.1661680E-17
   20.06550        1.1660199E-17
   20.22700        1.1670441E-17
   20.38850        1.1690291E-17
   20.55000        1.1709370E-17
   20.71150        1.1716378E-17
   20.87300        1.1707286E-17
   21.03450        1.1688615E-17
   21.19600        1.1673410E-17
   21.35750        1.1672609E-17
   21.51900        1.1687822E-17
   21.68050        1.1710541E-17
   21.84200        1.1728319E-17
   22.00350        1.1733591E-17
   22.16500        1.1728927E-17
   22.32650        1.1725073E-17
   22.48800        1.1733215E-17
   22.64950        1.1756924E-17
   22.81100        1.1789481E-17
   22.97250        1.1818398E-17
   23.13400        1.1833958E-17
   23.29550        1.1835744E-17
   23.45700        1.1832616E-17
   23.61850        1.1836193E-17
   23.78000        1.1852458E-17
   23.94150        1.1877381E-17
   24.10300        1.1899627E-17
   24.26450        1.1908455E-17
   24.42600        1.1901294E-17
   24.58750        1.1885659E-17
   24.74900        1.1874060E-17
   24.91050        1.1875476E-17
   25.07200        1.1889342E-17
   25.23350        1.1906278E-17
   25.39500        1.1915042E-17
   25.55650        1.1910734E-17
   25.71800        1.1898429E-17
   25.87950        1.1889601E-17
   26.04100        1.1893844E-17
   26.20250        1.1911809E-17
   26.36400        1.1934454E-17
   26.52550        1.1949198E-17
   26.68700        1.1948680E-17
   26.84850        1.1935880E-17
   27.01000        1.1921987E-17
   27.17150        1.1918530E-17
   27.33300        1.1929385E-17
   27.49450        1.1948334E-17
   27.65600        1.1963873E-17
   27.81750        1.1967758E-17
   27.97900        1.1961158E-17
   28.14050        1.1953952E-17
   28.30200        1.1957668E-17
   28.46350        1.1977077E-17
   28.62500        1.2006420E-17
   28.78650        1.2033005E-17
   28.94800        1.2045694E-17
   29.10950        1.2042344E-17
   29.27100        1.2030975E-17
   29.43250        1.2023863E-17
   29.59400        1.2028733E-17
   29.75550        1.2043309E-17
   29.91700        1.2057084E-17
   30.07850        1.2059090E-17
   30.24000        1.2046144E-17
   30.40150        1.2025663E-17
   30.56300        1.2010936E-17
   30.72450        1.2012139E-17
   30.88600        1.2029411E-17
   31.04750        1.2052926E-17
   31.20900        1.2069961E-17
   31.37050        1.2073926E-17
   31.53200        1.2068975E-17
   31.69350        1.2066898E-17
   31.85500        1.2078510E-17
   32.01650        1.2105656E-17
   32.17800        1.2139493E-17
   32.33950        1.2166300E-17
   32.50100        1.2176669E-17
   32.66250        1.2171647E-17
   32.82400        1.2161530E-17
   32.98550        1.2158294E-17
   33.14700        1.2167058E-17
   33.30850        1.2182622E-17
   33.47000        1.2193455E-17
   33.63150        1.2190259E-17
   33.79300        1.2173014E-17
   33.95450        1.2151522E-17
   34.11600        1.2139083E-17
   34.27750        1.2143716E-17
   34.43900        1.2163064E-17
   34.60050        1.2186448E-17
   34.76200        1.2202528E-17
   34.92350        1.2207112E-17
   35.08500        1.2205650E-17
   35.24650        1.2208767E-17
   35.40800        1.2224116E-17
   35.56950        1.2250427E-17
   35.73100        1.2278002E-17
   35.89250        1.2295289E-17
   36.05400        1.2296829E-17
   36.21550        1.2286943E-17
   36.37700        1.2276570E-17
   36.53850        1.2275573E-17
   36.70000        1.2286003E-17
   36.86150        1.2301066E-17
   37.02300        1.2310400E-17
   37.18450        1.2307795E-17
   37.34600        1.2295782E-17
   37.50750        1.2283856E-17
   37.66900        1.2281692E-17
   37.83050        1.2292261E-17
   37.99200        1.2309785E-17
   38.15350        1.2323898E-17
   38.31500        1.2327016E-17
   38.47650        1.2319613E-17
   38.63800        1.2309718E-17
   38.79950        1.2307049E-17
   38.96100        1.2316021E-17
   39.12250        1.2332602E-17
   39.28400        1.2347208E-17
   39.44550        1.2351549E-17
   39.60700        1.2344569E-17
   39.76850        1.2333260E-17
   39.93000        1.2327850E-17
   40.09150        1.2334748E-17
   40.25300        1.2352243E-17
   40.41450        1.2371963E-17
   40.57600        1.2385026E-17
   40.73750        1.2388436E-17
   40.89900        1.2387193E-17
   41.06050        1.2390563E-17
   41.22200        1.2405180E-17
   41.38350        1.2429926E-17
   41.54500        1.2456237E-17
   41.70650        1.2473665E-17
   41.86800        1.2476778E-17
   42.02950        1.2468543E-17
   42.19100        1.2457912E-17
   42.35250        1.2453413E-17
   42.51400        1.2457362E-17
   42.67550        1.2464781E-17
   42.83700        1.2467637E-17
   42.99850        1.2461253E-17
   43.16000        1.2448256E-17
   43.32150        1.2437229E-17
   43.48300        1.2437064E-17
   43.64450        1.2450982E-17
   43.80600        1.2474377E-17
   43.96750        1.2497924E-17
   44.12900        1.2513730E-17
   44.29050        1.2520225E-17
   44.45200        1.2522495E-17
   44.61350        1.2527967E-17
   44.77500        1.2540619E-17
   44.93650        1.2557814E-17
   45.09800        1.2571993E-17
   45.25950        1.2575975E-17
   45.42100        1.2568085E-17
   45.58250        1.2553477E-17
   45.74400        1.2540734E-17
   45.90550        1.2536165E-17
   46.06700        1.2539855E-17
   46.22850        1.2546193E-17
   46.39000        1.2548398E-17
   46.55150        1.2543718E-17
   46.71300        1.2535574E-17
   46.87450        1.2531198E-17
   47.03600        1.2536549E-17
   47.19750        1.2552178E-17
   47.35900        1.2572935E-17
   47.52050        1.2591584E-17
   47.68200        1.2603634E-17
   47.84350        1.2609957E-17
   48.00500        1.2615490E-17
   48.16650        1.2625117E-17
   48.32800        1.2639804E-17
   48.48950        1.2655695E-17
   48.65100        1.2666747E-17
   48.81250        1.2668932E-17
   48.97400        1.2663037E-17
   49.13550        1.2654149E-17
   49.29700        1.2648267E-17
   49.45850        1.2648495E-17
   49.62000        1.2653450E-17
   49.78150        1.2658871E-17
   49.94300        1.2661143E-17
   50.10450        1.2660105E-17
   50.26600        1.2659125E-17
   50.42750        1.2662438E-17
   50.58900        1.2671776E-17
   50.75050        1.2684773E-17
   50.91200        1.2696346E-17
   51.07350        1.2702016E-17
   51.23500        1.2700781E-17
   51.39650        1.2695518E-17
   51.55800        1.2690757E-17
   51.71950        1.2689559E-17
   51.88100        1.2691753E-17
   52.04250        1.2694720E-17
   52.20400        1.2695958E-17
   52.36550        1.2695418E-17
   52.52700        1.2695858E-17
   52.68850        1.2701017E-17
   52.85000        1.2712976E-17
   53.01150        1.2730621E-17
   53.17300        1.2750250E-17
   53.33450        1.2767825E-17
   53.49600        1.2781256E-17
   53.65750        1.2791193E-17
   53.81900        1.2799902E-17
   53.98050        1.2809168E-17
   54.14200        1.2818771E-17
   54.30350        1.2826588E-17
   54.46500        1.2830164E-17
   54.62650        1.2828543E-17
   54.78800        1.2823051E-17
   54.94950        1.2816508E-17
   55.11100        1.2811516E-17
   55.27250        1.2809071E-17
   55.43400        1.2808453E-17
   55.59550        1.2808346E-17
   55.75700        1.2808239E-17
   55.91850        1.2809021E-17
   56.08000        1.2812380E-17
   56.24150        1.2819555E-17
   56.40300        1.2830453E-17
   56.56450        1.2843727E-17
   56.72600        1.2857646E-17
   56.88750        1.2870972E-17
   57.04900        1.2883164E-17
   57.21050        1.2893894E-17
   57.37200        1.2902454E-17
   57.53350        1.2907717E-17
   57.69500        1.2908745E-17
   57.85650        1.2905544E-17
   58.01800        1.2899265E-17
   58.17950        1.2891617E-17
   58.34100        1.2883958E-17
   58.50250        1.2876772E-17
   58.66400        1.2870006E-17
   58.82550        1.2863961E-17
   58.98700        1.2859937E-17
   59.14850        1.2859970E-17
   59.31000        1.2865655E-17
   59.47150        1.2876883E-17
   59.63300        1.2891471E-17
   59.79450        1.2906141E-17
   59.95600        1.2918302E-17
   60.11750        1.2927429E-17
   60.27900        1.2935041E-17
   60.44050        1.2943205E-17
   60.60200        1.2952628E-17
   60.76350        1.2961761E-17
   60.92500        1.2967738E-17
   61.08650        1.2968594E-17
   61.24800        1.2965150E-17
   61.40950        1.2961037E-17
   61.57100        1.2960571E-17
   61.73250        1.2965893E-17
   61.89400        1.2975399E-17
   62.05550        1.2984783E-17
   62.21700        1.2990078E-17
   62.37850        1.2990575E-17
   62.54000        1.2989407E-17
   62.70150        1.2991260E-17
   62.86300        1.2998785E-17
   63.02450        1.3010361E-17
   63.18600        1.3020972E-17
   63.34750        1.3025666E-17
   63.50900        1.3023137E-17
   63.67050        1.3016786E-17
   63.83200        1.3012405E-17
   63.99350        1.3014058E-17
   64.15500        1.3021157E-17
   64.31650        1.3028881E-17
   64.47800        1.3031768E-17
   64.63950        1.3027942E-17
   64.80100        1.3020937E-17
   64.96250        1.3017666E-17
   65.12400        1.3023861E-17
   65.28550        1.3040113E-17
   65.44700        1.3061351E-17
   65.60850        1.3080261E-17
   65.77000        1.3092270E-17
   65.93150        1.3098556E-17
   66.09300        1.3104797E-17
   66.25450        1.3116471E-17
   66.41600        1.3134064E-17
   66.57750        1.3151828E-17
   66.73900        1.3161255E-17
   66.90050        1.3156965E-17
   67.06200        1.3140808E-17
   67.22350        1.3121044E-17
   67.38500        1.3107015E-17
   67.54650        1.3103013E-17
   67.70800        1.3105801E-17
   67.86950        1.3107645E-17
   68.03100        1.3102674E-17
   68.19250        1.3091890E-17
   68.35400        1.3083005E-17
   68.51550        1.3085087E-17
   68.67700        1.3101781E-17
   68.83850        1.3128083E-17
   69.00000        1.3153164E-17
   69.16150        1.3167403E-17
   69.32300        1.3168723E-17
   69.48450        1.3163670E-17
   69.64600        1.3162402E-17
   69.80750        1.3171081E-17
   69.96900        1.3187101E-17
   70.13050        1.3200683E-17
   70.29200        1.3201871E-17
   70.45350        1.3188005E-17
   70.61500        1.3166257E-17
   70.77650        1.3149179E-17
   70.93800        1.3146214E-17
   71.09950        1.3157157E-17
   71.26100        1.3172373E-17
   71.42250        1.3179829E-17
   71.58400        1.3174015E-17
   71.74550        1.3160313E-17
   71.90700        1.3151450E-17
   72.06850        1.3158412E-17
   72.23000        1.3182265E-17
   72.39150        1.3212888E-17
   72.55300        1.3235715E-17
   72.71450        1.3241758E-17
   72.87600        1.3233757E-17
   73.03750        1.3223970E-17
   73.19900        1.3225135E-17
   73.36050        1.3241080E-17
   73.52200        1.3263783E-17
   73.68350        1.3279094E-17
   73.84500        1.3277071E-17
   74.00650        1.3259551E-17
   74.16800        1.3239419E-17
   74.32950        1.3231939E-17
   74.49100        1.3244201E-17
   74.65250        1.3270158E-17
   74.81400        1.3294881E-17
   74.97550        1.3305074E-17
   75.13700        1.3298440E-17
   75.29850        1.3285134E-17
   75.46000        1.3280198E-17
   75.62150        1.3292304E-17
   75.78300        1.3316980E-17
   75.94450        1.3339353E-17
   76.10600        1.3344648E-17
   76.26750        1.3328986E-17
   76.42900        1.3302614E-17
   76.59050        1.3283066E-17
   76.75200        1.3283009E-17
   76.91350        1.3301480E-17
   77.07500        1.3324891E-17
   77.23650        1.3337132E-17
   77.39800        1.3331500E-17
   77.55950        1.3315786E-17
   77.72100        1.3306749E-17
   77.88250        1.3317885E-17
   78.04400        1.3349322E-17
   78.20550        1.3387173E-17
   78.36700        1.3412957E-17
   78.52850        1.3416388E-17
   78.69000        1.3402399E-17
   78.85150        1.3387343E-17
   79.01300        1.3387019E-17
   79.17450        1.3405087E-17
   79.33600        1.3430212E-17
   79.49750        1.3444098E-17
   79.65900        1.3434772E-17
   79.82050        1.3405628E-17
   79.98200        1.3373649E-17
   80.14350        1.3357885E-17
   80.30500        1.3366290E-17
   80.46650        1.3390339E-17
   80.62800        1.3411387E-17
   80.78950        1.3414328E-17
   80.95100        1.3398744E-17
   81.11250        1.3379429E-17
   81.27400        1.3375718E-17
   81.43550        1.3397185E-17
   81.59700        1.3436064E-17
   81.75850        1.3472033E-17
   81.92000        1.3486112E-17
   82.08150        1.3473818E-17
   82.24300        1.3448087E-17
   82.40450        1.3429840E-17
   82.56600        1.3432928E-17
   82.72750        1.3454261E-17
   82.88900        1.3476267E-17
   83.05050        1.3479921E-17
   83.21200        1.3458980E-17
   83.37350        1.3425138E-17
   83.53500        1.3400307E-17
   83.69650        1.3401411E-17
   83.85800        1.3428505E-17
   84.01950        1.3464695E-17
   84.18100        1.3487969E-17
   84.34250        1.3486598E-17
   84.50400        1.3467203E-17
   84.66550        1.3449728E-17
   84.82700        1.3452887E-17
   84.98850        1.3480435E-17
   85.15000        1.3518116E-17
   85.31150        1.3543563E-17
   85.47300        1.3542180E-17
   85.63450        1.3517683E-17
   85.79600        1.3489668E-17
   85.95750        1.3479827E-17
   86.11900        1.3496593E-17
   86.28050        1.3529200E-17
   86.44200        1.3555499E-17
   86.60350        1.3557982E-17
   86.76500        1.3536510E-17
   86.92650        1.3508570E-17
   87.08800        1.3496838E-17
   87.24950        1.3512927E-17
   87.41100        1.3549010E-17
   87.57250        1.3583328E-17
   87.73400        1.3595626E-17
   87.89550        1.3581437E-17
   88.05700        1.3554987E-17
   88.21850        1.3538662E-17
   88.38000        1.3546658E-17
   88.54150        1.3574579E-17
   88.70300        1.3602468E-17
   88.86450        1.3609141E-17
   89.02600        1.3587582E-17
   89.18750        1.3550392E-17
   89.34900        1.3521330E-17
   89.51050        1.3518920E-17
   89.67200        1.3543738E-17
   89.83350        1.3578455E-17
   89.99500        1.3600572E-17
   90.15650        1.3598748E-17
   90.31800        1.3580970E-17
   90.47950        1.3568641E-17
   90.64100        1.3580757E-17
   90.80250        1.3619511E-17
   90.96400        1.3667796E-17
   91.12550        1.3700606E-17
   91.28700        1.3702314E-17
   91.44850        1.3677515E-17
   91.61000        1.3647618E-17
   91.77150        1.3635564E-17
   91.93300        1.3649579E-17
   92.09450        1.3677621E-17
   92.25600        1.3696467E-17
   92.41750        1.3688924E-17
   92.57900        1.3656755E-17
   92.74050        1.3619985E-17
   92.90200        1.3602972E-17
   93.06350        1.3617205E-17
   93.22500        1.3653090E-17
   93.38650        1.3686641E-17
   93.54800        1.3696368E-17
   93.70950        1.3678359E-17
   93.87100        1.3648869E-17
   94.03250        1.3632568E-17
   94.19400        1.3644786E-17
   94.35550        1.3680394E-17
   94.51700        1.3717257E-17
   94.67850        1.3731849E-17
   94.84000        1.3715946E-17
   95.00150        1.3682486E-17
   95.16300        1.3656403E-17
   95.32450        1.3656906E-17
   95.48600        1.3683827E-17
   95.64750        1.3717844E-17
   95.80900        1.3734438E-17
   95.97050        1.3721670E-17
   96.13200        1.3688996E-17
   96.29350        1.3660784E-17
   96.45500        1.3659093E-17
   96.61650        1.3688043E-17
   96.77800        1.3730903E-17
   96.93950        1.3761963E-17
   97.10100        1.3764668E-17
   97.26250        1.3743052E-17
   97.42400        1.3718367E-17
   97.58550        1.3713420E-17
   97.74700        1.3735932E-17
   97.90850        1.3772840E-17
   98.07000        1.3799597E-17
   98.23150        1.3797799E-17
   98.39300        1.3768538E-17
   98.55450        1.3731946E-17
   98.71600        1.3713244E-17
   98.87750        1.3725210E-17
   99.03900        1.3759485E-17
   99.20050        1.3792869E-17
   99.36200        1.3804063E-17
   99.52350        1.3788863E-17
   99.68500        1.3762963E-17
   99.84650        1.3750352E-17
   100.0080        1.3765646E-17
   100.1695        1.3803081E-17
   100.3310        1.3840144E-17
   100.4925        1.3853326E-17
   100.6540        1.3834761E-17
   100.8155        1.3797794E-17
   100.9770        1.3767491E-17
   101.1385        1.3762864E-17
   101.3000        1.3783587E-17
   101.4615        1.3810695E-17
   101.6230        1.3820712E-17
   101.7845        1.3802991E-17
   101.9460        1.3767766E-17
   102.1075        1.3739154E-17
   102.2690        1.3738099E-17
   102.4305        1.3767520E-17
   102.5920        1.3810223E-17
   102.7535        1.3841087E-17
   102.9150        1.3844757E-17
   103.0765        1.3826263E-17
   103.2380        1.3806999E-17
   103.3995        1.3809009E-17
   103.5610        1.3838801E-17
   103.7225        1.3882266E-17
   103.8840        1.3914361E-17
   104.0455        1.3916698E-17
   104.2070        1.3890555E-17
   104.3685        1.3855985E-17
   104.5300        1.3837682E-17
   104.6915        1.3847615E-17
   104.8530        1.3876831E-17
   105.0145        1.3902269E-17
   105.1760        1.3903688E-17
   105.3375        1.3878584E-17
   105.4990        1.3844355E-17
   105.6605        1.3826125E-17
   105.8220        1.3838906E-17
   105.9835        1.3876844E-17
   106.1450        1.3917238E-17
   106.3065        1.3936476E-17
   106.4680        1.3926472E-17
   106.6295        1.3899948E-17
   106.7910        1.3880877E-17
   106.9525        1.3887009E-17
   107.1140        1.3917033E-17
   107.2755        1.3951465E-17
   107.4370        1.3966635E-17
   107.5985        1.3951700E-17
   107.7600        1.3916584E-17
   107.9215        1.3885179E-17
   108.0830        1.3878678E-17
   108.2445        1.3900866E-17
   108.4060        1.3935790E-17
   108.5675        1.3959381E-17
   108.7290        1.3956717E-17
   108.8905        1.3932623E-17
   109.0520        1.3908073E-17
   109.2135        1.3904994E-17
   109.3750        1.3930357E-17
   109.5365        1.3970953E-17
   109.6980        1.4002566E-17
   109.8595        1.4007036E-17
   110.0210        1.3984977E-17
   110.1825        1.3955128E-17
   110.3440        1.3940783E-17
   110.5055        1.3953089E-17
   110.6670        1.3983147E-17
   110.8285        1.4008590E-17
   110.9900        1.4009844E-17
   111.1515        1.3984431E-17
   111.3130        1.3949000E-17
   111.4745        1.3927672E-17
   111.6360        1.3935045E-17
   111.7975        1.3965980E-17
   111.9590        1.3999459E-17
   112.1205        1.4013669E-17
   112.2820        1.4001484E-17
   112.4435        1.3975278E-17
   112.6050        1.3957641E-17
   112.7665        1.3964736E-17
   112.9280        1.3994281E-17
   113.0895        1.4026788E-17
   113.2510        1.4039247E-17
   113.4125        1.4021509E-17
   113.5740        1.3983617E-17
   113.7355        1.3948901E-17
   113.8970        1.3937697E-17
   114.0585        1.3953334E-17
   114.2200        1.3980352E-17
   114.3815        1.3996164E-17
   114.5430        1.3987795E-17
   114.7045        1.3961565E-17
   114.8660        1.3938814E-17
   115.0275        1.3940607E-17
   115.1890        1.3972429E-17
   115.3505        1.4019810E-17
   115.5120        1.4058113E-17
   115.6735        1.4069551E-17
   115.8350        1.4055306E-17
   115.9965        1.4034145E-17
   116.1580        1.4028550E-17
   116.3195        1.4048354E-17
   116.4810        1.4083561E-17
   116.6425        1.4111533E-17
   116.8040        1.4113347E-17
   116.9655        1.4087584E-17
   117.1270        1.4051646E-17
   117.2885        1.4029663E-17
   117.4500        1.4035563E-17
   117.6115        1.4063450E-17
   117.7730        1.4092102E-17
   117.9345        1.4100357E-17
   118.0960        1.4082358E-17
   118.2575        1.4051765E-17
   118.4190        1.4031954E-17
   118.5805        1.4039239E-17
   118.7420        1.4071125E-17