  -27.90000       -1.0137059E-18
  -27.73850       -1.0171520E-18
  -27.57700       -1.0220812E-18
  -27.41550       -1.0258352E-18
  -27.25400       -1.0266728E-18
  -27.09250       -1.0248071E-18
  -26.93100       -1.0222421E-18
  -26.76950       -1.0214875E-18
  -26.60800       -1.0239733E-18
  -26.44650       -1.0291175E-18
  -26.28500       -1.0346698E-18
  -26.12350       -1.0380933E-18
  -25.96200       -1.0381297E-18
  -25.80050       -1.0355737E-18
  -25.63900       -1.0327566E-18
  -25.47750       -1.0321084E-18
  -25.31600       -1.0346553E-18
  -25.15450       -1.0394172E-18
  -24.99300       -1.0440593E-18
  -24.83150       -1.0463658E-18
  -24.67000       -1.0456073E-18
  -24.50850       -1.0429532E-18
  -24.34700       -1.0407019E-18
  -24.18550       -1.0408464E-18
  -24.02400       -1.0438691E-18
  -23.86250       -1.0484815E-18
  -23.70100       -1.0524475E-18
  -23.53950       -1.0539552E-18
  -23.37800       -1.0527316E-18
  -23.21650       -1.0501818E-18
  -23.05500       -1.0484973E-18
  -22.89350       -1.0492933E-18
  -22.73200       -1.0526127E-18
  -22.57050       -1.0569138E-18
  -22.40900       -1.0600460E-18
  -22.24750       -1.0605946E-18
  -22.08600       -1.0587687E-18
  -21.92450       -1.0562641E-18
  -21.76300       -1.0551786E-18
  -21.60150       -1.0566565E-18
  -21.44000       -1.0601593E-18
  -21.27850       -1.0638466E-18
  -21.11700       -1.0658098E-18
  -20.95550       -1.0653369E-18
  -20.79400       -1.0633591E-18
  -20.63250       -1.0618082E-18
  -20.47100       -1.0623183E-18
  -20.30950       -1.0651342E-18
  -20.14800       -1.0689428E-18
  -19.98650       -1.0717408E-18
  -19.82500       -1.0721677E-18
  -19.66350       -1.0703938E-18
  -19.50200       -1.0680008E-18
  -19.34050       -1.0669353E-18
  -19.17900       -1.0682645E-18
  -19.01750       -1.0715250E-18
  -18.85600       -1.0750484E-18
  -18.69450       -1.0770265E-18
  -18.53300       -1.0766457E-18
  -18.37150       -1.0746045E-18
  -18.21000       -1.0726734E-18
  -18.04850       -1.0725887E-18
  -17.88700       -1.0749520E-18
  -17.72550       -1.0788311E-18
  -17.56400       -1.0823158E-18
  -17.40250       -1.0836817E-18
  -17.24100       -1.0824541E-18
  -17.07950       -1.0797467E-18
  -16.91800       -1.0776273E-18
  -16.75650       -1.0778655E-18
  -16.59500       -1.0808024E-18
  -16.43350       -1.0850838E-18
  -16.27200       -1.0884747E-18
  -16.11050       -1.0892771E-18
  -15.94900       -1.0874398E-18
  -15.78750       -1.0846127E-18
  -15.62600       -1.0831210E-18
  -15.46450       -1.0844773E-18
  -15.30300       -1.0884113E-18
  -15.14150       -1.0930135E-18
  -14.98000       -1.0959525E-18
  -14.81850       -1.0959593E-18
  -14.65700       -1.0936199E-18
  -14.49550       -1.0909419E-18
  -14.33400       -1.0900045E-18
  -14.17250       -1.0916197E-18
  -14.01100       -1.0948843E-18
  -13.84950       -1.0978464E-18
  -13.68800       -1.0988109E-18
  -13.52650       -1.0974133E-18
  -13.36500       -1.0947994E-18
  -13.20350       -1.0928330E-18
  -13.04200       -1.0928581E-18
  -12.88050       -1.0948615E-18
  -12.71900       -1.0975482E-18
  -12.55750       -1.0992607E-18
  -12.39600       -1.0990905E-18
  -12.23450       -1.0974682E-18
  -12.07300       -1.0958799E-18
  -11.91150       -1.0959140E-18
  -11.75000       -1.0982326E-18
  -11.58850       -1.1020997E-18
  -11.42700       -1.1058009E-18
  -11.26550       -1.1077267E-18
  -11.10400       -1.1074335E-18
  -10.94250       -1.1059829E-18
  -10.78100       -1.1052683E-18
  -10.61950       -1.1067554E-18
  -10.45800       -1.1104238E-18
  -10.29650       -1.1146419E-18
  -10.13500       -1.1171138E-18
  -9.973500       -1.1163730E-18
  -9.812000       -1.1128708E-18
  -9.650500       -1.1088742E-18
  -9.489000       -1.1071179E-18
  -9.327500       -1.1090350E-18
  -9.166000       -1.1137286E-18
  -9.004500       -1.1184385E-18
  -8.843000       -1.1202550E-18
  -8.681500       -1.1180106E-18
  -8.520000       -1.1131269E-18
  -8.358500       -1.1088286E-18
  -8.197000       -1.1081652E-18
  -8.035500       -1.1120652E-18
  -7.874000       -1.1186748E-18
  -7.712500       -1.1244297E-18
  -7.551000       -1.1262422E-18
  -7.389500       -1.1233907E-18
  -7.228000       -1.1179570E-18
  -7.066500       -1.1135631E-18
  -6.905000       -1.1131898E-18
  -6.743500       -1.1173966E-18
  -6.582000       -1.1239898E-18
  -6.420500       -1.1293352E-18
  -6.259000       -1.1305269E-18
  -6.097500       -1.1271051E-18
  -5.936000       -1.1213133E-18
  -5.774500       -1.1167474E-18
  -5.613000       -1.1162154E-18
  -5.451500       -1.1200929E-18
  -5.290000       -1.1261174E-18
  -5.128500       -1.1307456E-18
  -4.967000       -1.1312682E-18
  -4.805500       -1.1274442E-18
  -4.644000       -1.1216545E-18
  -4.482500       -1.1174668E-18
  -4.321000       -1.1174836E-18
  -4.159500       -1.1217877E-18
  -3.998000       -1.1279525E-18
  -3.836500       -1.1325838E-18
  -3.675000       -1.1334195E-18
  -3.513500       -1.1306866E-18
  -3.352000       -1.1268764E-18
  -3.190500       -1.1251040E-18
  -3.029000       -1.1271190E-18
  -2.867500       -1.1322412E-18
  -2.706000       -1.1378956E-18
  -2.544500       -1.1413395E-18
  -2.383000       -1.1414049E-18
  -2.221500       -1.1391500E-18
  -2.060000       -1.1370282E-18
  -1.898500       -1.1371911E-18
  -1.737000       -1.1400700E-18
  -1.575500       -1.1441405E-18
  -1.414000       -1.1469966E-18
  -1.252500       -1.1469685E-18
  -1.091000       -1.1442121E-18
 -0.9295000       -1.1405569E-18
 -0.7680000       -1.1382559E-18
 -0.6065000       -1.1385111E-18
 -0.4450000       -1.1407177E-18
 -0.2835000       -1.1429201E-18
 -0.1220000       -1.1431281E-18
  3.9500002E-02   -1.1406679E-18
  0.2010000       -1.1366751E-18
  0.3625000       -1.1334218E-18
  0.5240000       -1.1328846E-18
  0.6855000       -1.1354724E-18
  0.8470000       -1.1397035E-18
   1.008500       -1.1430905E-18
   1.170000       -1.1436677E-18
   1.331500       -1.1412450E-18
   1.493000       -1.1375975E-18
   1.654500       -1.1354264E-18
   1.816000       -1.1366816E-18
   1.977500       -1.1412930E-18
   2.139000       -1.1471087E-18
   2.300500       -1.1511636E-18
   2.462000       -1.1515079E-18
   2.623500       -1.1484766E-18
   2.785000       -1.1445713E-18
   2.946500       -1.1429792E-18
   3.108000       -1.1456238E-18
   3.269500       -1.1519323E-18
   3.431000       -1.1591358E-18
   3.592500       -1.1639333E-18
   3.754000       -1.1645111E-18
   3.915500       -1.1616241E-18
   4.077000       -1.1580867E-18
   4.238500       -1.1569938E-18
   4.400000       -1.1598041E-18
   4.561500       -1.1654831E-18
   4.723000       -1.1711793E-18
   4.884500       -1.1740074E-18
   5.046000       -1.1727874E-18
   5.207500       -1.1686785E-18
   5.369000       -1.1643637E-18
   5.530500       -1.1623527E-18
   5.692000       -1.1634978E-18
   5.853500       -1.1666001E-18
   6.015000       -1.1692753E-18
   6.176500       -1.1694641E-18
   6.338000       -1.1666547E-18
   6.499500       -1.1621143E-18
   6.661000       -1.1580481E-18
   6.822500       -1.1562472E-18
   6.984000       -1.1570695E-18
   7.145500       -1.1593537E-18
   7.307000       -1.1612491E-18
   7.468500       -1.1613995E-18
   7.630000       -1.1597412E-18
   7.791500       -1.1574457E-18
   7.953000       -1.1560966E-18
   8.114500       -1.1566283E-18
   8.276000       -1.1587169E-18
   8.437500       -1.1610169E-18
   8.599000       -1.1620972E-18
   8.760500       -1.1614259E-18
   8.922000       -1.1597337E-18
   9.083500       -1.1584975E-18
   9.245000       -1.1589024E-18
   9.406500       -1.1609900E-18
   9.568000       -1.1635962E-18
   9.729500       -1.1651578E-18
   9.891000       -1.1648463E-18
   10.05250       -1.1632644E-18
   10.21400       -1.1621513E-18
   10.37550       -1.1632444E-18
   10.53700       -1.1670502E-18
   10.69850       -1.1723932E-18
   10.86000       -1.1770941E-18
   11.02150       -1.1793529E-18
   11.18300       -1.1789376E-18
   11.34450       -1.1773690E-18
   11.50600       -1.1769528E-18
   11.66750       -1.1792465E-18
   11.82900       -1.1839571E-18
   11.99050       -1.1890299E-18
   12.15200       -1.1919042E-18
   12.31350       -1.1911568E-18
   12.47500       -1.1874586E-18
   12.63650       -1.1832155E-18
   12.79800       -1.1810989E-18
   12.95950       -1.1823846E-18
   13.12100       -1.1861142E-18
   13.28250       -1.1896413E-18
   13.44400       -1.1902531E-18
   13.60550       -1.1868815E-18
   13.76700       -1.1808419E-18
   13.92850       -1.1750922E-18
   14.09000       -1.1724459E-18
   14.25150       -1.1738456E-18
   14.41300       -1.1777694E-18
   14.57450       -1.1811577E-18
   14.73600       -1.1813219E-18
   14.89750       -1.1776854E-18
   15.05900       -1.1722381E-18
   15.22050       -1.1683688E-18
   15.38200       -1.1687470E-18
   15.54350       -1.1735816E-18
   15.70500       -1.1803982E-18
   15.86650       -1.1855336E-18
   16.02800       -1.1864376E-18
   16.18950       -1.1833277E-18
   16.35100       -1.1791168E-18
   16.51250       -1.1775819E-18
   16.67400       -1.1809057E-18
   16.83550       -1.1881554E-18
   16.99700       -1.1957516E-18
   17.15850       -1.1997096E-18
   17.32000       -1.1982317E-18
   17.48150       -1.1929557E-18
   17.64300       -1.1880009E-18
   17.80450       -1.1873553E-18
   17.96600       -1.1922617E-18
   18.12750       -1.2003064E-18
   18.28900       -1.2068462E-18
   18.45050       -1.2079360E-18
   18.61200       -1.2028958E-18
   18.77350       -1.1948443E-18
   18.93500       -1.1888022E-18
   19.09650       -1.1885293E-18
   19.25800       -1.1941273E-18
   19.41950       -1.2019246E-18
   19.58100       -1.2067722E-18
   19.74250       -1.2053107E-18
   19.90400       -1.1981822E-18
   20.06550       -1.1897598E-18
   20.22700       -1.1854918E-18
   20.38850       -1.1885029E-18
   20.55000       -1.1975358E-18
   20.71150       -1.2075775E-18
   20.87300       -1.2128493E-18
   21.03450       -1.2103516E-18
   21.19600       -1.2018108E-18
   21.35750       -1.1927469E-18
   21.51900       -1.1891558E-18
   21.68050       -1.1937737E-18
   21.84200       -1.2042380E-18
   22.00350       -1.2143793E-18
   22.16500       -1.2179687E-18
   22.32650       -1.2126504E-18
   22.48800       -1.2015844E-18
   22.64950       -1.1916541E-18
   22.81100       -1.1892528E-18
   22.97250       -1.1962080E-18
   23.13400       -1.2084623E-18
   23.29550       -1.2184576E-18
   23.45700       -1.2198315E-18
   23.61850       -1.2115026E-18
   23.78000       -1.1985201E-18
   23.94150       -1.1890311E-18
   24.10300       -1.1892149E-18
   24.26450       -1.1993589E-18
   24.42600       -1.2135777E-18
   24.58750       -1.2234201E-18
   24.74900       -1.2231311E-18
   24.91050       -1.2132887E-18
   25.07200       -1.2005088E-18
   25.23350       -1.1933614E-18
   25.39500       -1.1970236E-18
   25.55650       -1.2099887E-18
   25.71800       -1.2248987E-18
   25.87950       -1.2329931E-18
   26.04100       -1.2294743E-18
   26.20250       -1.2165062E-18
   26.36400       -1.2019874E-18
   26.52550       -1.1948000E-18
   26.68700       -1.1993896E-18
   26.84850       -1.2130010E-18
   27.01000       -1.2272963E-18
   27.17150       -1.2334390E-18
   27.33300       -1.2275654E-18
   27.49450       -1.2132810E-18
   27.65600       -1.1995828E-18
   27.81750       -1.1953726E-18
   27.97900       -1.2038739E-18
   28.14050       -1.2204416E-18
   28.30200       -1.2352426E-18
   28.46350       -1.2392615E-18
   28.62500       -1.2299602E-18
   28.78650       -1.2129996E-18
   28.94800       -1.1988800E-18
   29.10950       -1.1964680E-18
   29.27100       -1.2074407E-18
   29.43250       -1.2251420E-18
   29.59400       -1.2386512E-18
   29.75550       -1.2396121E-18
   29.91700       -1.2275191E-18
   30.07850       -1.2101182E-18
   30.24000       -1.1986105E-18
   30.40150       -1.2006538E-18
   30.56300       -1.2155416E-18
   30.72450       -1.2346024E-18
   30.88600       -1.2465576E-18
   31.04750       -1.2445219E-18
   31.20900       -1.2302869E-18
   31.37050       -1.2132141E-18
   31.53200       -1.2044243E-18
   31.69350       -1.2099121E-18
   31.85500       -1.2268390E-18
   32.01650       -1.2452923E-18
   32.17800       -1.2544021E-18
   32.33950       -1.2490256E-18
   32.50100       -1.2329168E-18
   32.66250       -1.2164323E-18
   32.82400       -1.2101673E-18
   32.98550       -1.2184012E-18
   33.14700       -1.2363770E-18
   33.30850       -1.2531478E-18
   33.47000       -1.2582861E-18
   33.63150       -1.2483357E-18
   33.79300       -1.2290443E-18
   33.95450       -1.2118984E-18
   34.11600       -1.2070752E-18
   34.27750       -1.2170962E-18
   34.43900       -1.2351772E-18
   34.60050       -1.2493871E-18
   34.76200       -1.2501196E-18
   34.92350       -1.2362005E-18
   35.08500       -1.2157532E-18
   35.24650       -1.2011810E-18
   35.40800       -1.2013996E-18
   35.56950       -1.2162074E-18
   35.73100       -1.2363887E-18
   35.89250       -1.2494946E-18
   36.05400       -1.2476867E-18
   36.21550       -1.2326899E-18
   36.37700       -1.2147048E-18
   36.53850       -1.2059695E-18
   36.70000       -1.2130556E-18
   36.86150       -1.2327416E-18
   37.02300       -1.2540473E-18
   37.18450       -1.2650885E-18
   37.34600       -1.2604335E-18
   37.50750       -1.2443991E-18
   37.66900       -1.2282953E-18
   37.83050       -1.2233447E-18
   37.99200       -1.2336776E-18
   38.15350       -1.2537330E-18
   38.31500       -1.2716606E-18
   38.47650       -1.2766494E-18
   38.63800       -1.2656521E-18
   38.79950       -1.2453674E-18
   38.96100       -1.2282039E-18
   39.12250       -1.2246756E-18
   39.28400       -1.2368560E-18
   39.44550       -1.2569608E-18
   39.60700       -1.2720663E-18
   39.76850       -1.2721523E-18
   39.93000       -1.2565011E-18
   40.09150       -1.2343711E-18
   40.25300       -1.2193642E-18
   40.41450       -1.2208984E-18
   40.57600       -1.2381279E-18
   40.73750       -1.2602374E-18
   40.89900       -1.2730813E-18
   41.06050       -1.2681039E-18
   41.22200       -1.2479176E-18
   41.38350       -1.2248937E-18
   41.54500       -1.2134847E-18
   41.70650       -1.2210573E-18
   41.86800       -1.2430850E-18
   42.02950       -1.2658384E-18
   42.19100       -1.2749546E-18
   42.35250       -1.2645107E-18
   42.51400       -1.2408900E-18
   42.67550       -1.2189335E-18
   42.83700       -1.2127301E-18
   42.99850       -1.2267643E-18
   43.16000       -1.2529944E-18
   43.32150       -1.2757250E-18
   43.48300       -1.2813163E-18
   43.64450       -1.2666794E-18
   43.80600       -1.2412910E-18
   43.96750       -1.2214367E-18
   44.12900       -1.2201791E-18
   44.29050       -1.2392077E-18
   44.45200       -1.2676068E-18
   44.61350       -1.2884107E-18
   44.77500       -1.2890329E-18
   44.93650       -1.2691648E-18
   45.09800       -1.2411990E-18
   45.25950       -1.2227447E-18
   45.42100       -1.2257653E-18
   45.58250       -1.2490185E-18
   45.74400       -1.2786006E-18
   45.90550       -1.2964080E-18
   46.06700       -1.2914094E-18
   46.22850       -1.2667078E-18
   46.39000       -1.2378325E-18
   46.55150       -1.2231617E-18
   46.71300       -1.2323568E-18
   46.87450       -1.2601289E-18
   47.03600       -1.2893554E-18
   47.19750       -1.3017106E-18
   47.35900       -1.2891612E-18
   47.52050       -1.2590827E-18
   47.68200       -1.2297129E-18
   47.84350       -1.2187587E-18
   48.00500       -1.2323082E-18
   48.16650       -1.2610547E-18
   48.32800       -1.2862229E-18
   48.48950       -1.2914362E-18
   48.65100       -1.2730187E-18
   48.81250       -1.2422668E-18
   48.97400       -1.2183158E-18
   49.13550       -1.2161379E-18
   49.29700       -1.2372096E-18
   49.45850       -1.2686660E-18
   49.62000       -1.2913996E-18
   49.78150       -1.2920061E-18
   49.94300       -1.2710947E-18
   50.10450       -1.2428024E-18
   50.26600       -1.2258696E-18
   50.42750       -1.2319084E-18
   50.58900       -1.2581533E-18
   50.75050       -1.2892091E-18
   50.91200       -1.3066536E-18
   51.07350       -1.3005209E-18
   51.23500       -1.2754861E-18
   51.39650       -1.2478883E-18
   51.55800       -1.2354488E-18
   51.71950       -1.2461277E-18
   51.88100       -1.2731412E-18
   52.04250       -1.2992960E-18
   52.20400       -1.3079204E-18
   52.36550       -1.2934748E-18
   52.52700       -1.2650924E-18
   52.68850       -1.2407646E-18
   52.85000       -1.2358671E-18
   53.01150       -1.2533630E-18
   53.17300       -1.2819658E-18
   53.33450       -1.3034376E-18
   53.49600       -1.3043020E-18
   53.65750       -1.2843935E-18
   53.81900       -1.2567871E-18
   53.98050       -1.2392196E-18
   54.14200       -1.2426550E-18
   54.30350       -1.2643623E-18
   54.46500       -1.2898970E-18
   54.62650       -1.3025478E-18
   54.78800       -1.2940665E-18
   54.94950       -1.2697842E-18
   55.11100       -1.2449913E-18
   55.27250       -1.2351031E-18
   55.43400       -1.2459784E-18
   55.59550       -1.2704819E-18
   55.75700       -1.2932848E-18
   55.91850       -1.3006571E-18
   56.08000       -1.2890158E-18
   56.24150       -1.2669103E-18
   56.40300       -1.2493678E-18
   56.56450       -1.2482661E-18
   56.72600       -1.2648448E-18
   56.88750       -1.2889944E-18
   57.04900       -1.3057250E-18
   57.21050       -1.3046964E-18
   57.37200       -1.2868225E-18
   57.53350       -1.2637319E-18
   57.69500       -1.2504007E-18
   57.85650       -1.2556010E-18
   58.01800       -1.2762735E-18
   58.17950       -1.2994781E-18
   58.34100       -1.3107100E-18
   58.50250       -1.3032409E-18
   58.66400       -1.2824163E-18
   58.82550       -1.2620943E-18
   58.98700       -1.2555825E-18
   59.14850       -1.2669863E-18
   59.31000       -1.2886520E-18
   59.47150       -1.3062965E-18
   59.63300       -1.3083879E-18
   59.79450       -1.2935641E-18
   59.95600       -1.2713089E-18
   60.11750       -1.2556292E-18
   60.27900       -1.2560138E-18
   60.44050       -1.2715769E-18
   60.60200       -1.2919747E-18
   60.76350       -1.3042348E-18
   60.92500       -1.3009520E-18
   61.08650       -1.2846594E-18
   61.24800       -1.2658490E-18
   61.40950       -1.2561903E-18
   61.57100       -1.2613258E-18
   61.73250       -1.2776629E-18
   61.89400       -1.2949089E-18
   62.05550       -1.3025693E-18
   62.21700       -1.2963523E-18
   62.37850       -1.2806370E-18
   62.54000       -1.2656296E-18
   62.70150       -1.2610122E-18
   62.86300       -1.2700049E-18
   63.02450       -1.2874457E-18
   63.18600       -1.3030548E-18
   63.34750       -1.3078402E-18
   63.50900       -1.2996061E-18
   63.67050       -1.2841522E-18
   63.83200       -1.2714194E-18
   63.99350       -1.2691114E-18
   64.15500       -1.2779068E-18
   64.31650       -1.2913126E-18
   64.47800       -1.3001547E-18
   64.63950       -1.2986247E-18
   64.80100       -1.2878879E-18
   64.96250       -1.2750193E-18
   65.12400       -1.2681950E-18
   65.28550       -1.2715026E-18
   65.44700       -1.2827063E-18
   65.60850       -1.2951546E-18
   65.77000       -1.3022287E-18
   65.93150       -1.3012750E-18
   66.09300       -1.2946487E-18
   66.25450       -1.2876226E-18
   66.41600       -1.2848636E-18
   66.57750       -1.2878414E-18
   66.73900       -1.2945135E-18
   66.90050       -1.3010516E-18
   67.06200       -1.3042352E-18
   67.22350       -1.3030774E-18
   67.38500       -1.2990033E-18
   67.54650       -1.2947741E-18
   67.70800       -1.2929090E-18
   67.86950       -1.2944427E-18
   68.03100       -1.2985444E-18
   68.19250       -1.3030874E-18
   68.35400       -1.3058264E-18
   68.51550       -1.3055630E-18
   68.67700       -1.3026851E-18
   68.83850       -1.2988064E-18
   69.00000       -1.2957431E-18
   69.16150       -1.2944829E-18
   69.32300       -1.2947924E-18
   69.48450       -1.2956333E-18
   69.64600       -1.2959983E-18
   69.80750       -1.2954904E-18
   69.96900       -1.2942988E-18
   70.13050       -1.2927827E-18
   70.29200       -1.2911483E-18
   70.45350       -1.2895350E-18
   70.61500       -1.2883296E-18
   70.77650       -1.2882225E-18
   70.93800       -1.2897346E-18
   71.09950       -1.2925397E-18
   71.26100       -1.2952360E-18
   71.42250       -1.2960439E-18
   71.58400       -1.2941135E-18
   71.74550       -1.2904683E-18
   71.90700       -1.2876912E-18
   72.06850       -1.2883469E-18
   72.23000       -1.2931432E-18
   72.39150       -1.3002092E-18
   72.55300       -1.3061324E-18
   72.71450       -1.3081512E-18
   72.87600       -1.3060037E-18
   73.03750       -1.3021354E-18
   73.19900       -1.3000905E-18
   73.36050       -1.3021668E-18
   73.52200       -1.3079365E-18
   73.68350       -1.3145656E-18
   73.84500       -1.3186687E-18
   74.00650       -1.3184030E-18
   74.16800       -1.3145046E-18
   74.32950       -1.3097094E-18
   74.49100       -1.3070502E-18
   74.65250       -1.3080959E-18
   74.81400       -1.3121293E-18
   74.97550       -1.3166263E-18
   75.13700       -1.3187035E-18
   75.29850       -1.3167109E-18
   75.46000       -1.3111309E-18
   75.62150       -1.3043318E-18
   75.78300       -1.2992993E-18
   75.94450       -1.2979766E-18
   76.10600       -1.3001565E-18
   76.26750       -1.3035747E-18
   76.42900       -1.3052322E-18
   76.59050       -1.3032365E-18
   76.75200       -1.2980266E-18
   76.91350       -1.2921771E-18
   77.07500       -1.2888533E-18
   77.23650       -1.2898529E-18
   77.39800       -1.2944866E-18
   77.55950       -1.3000065E-18
   77.72100       -1.3033213E-18
   77.88250       -1.3028923E-18
   78.04400       -1.2996050E-18
   78.20550       -1.2961164E-18
   78.36700       -1.2951409E-18
   78.52850       -1.2977938E-18
   78.69000       -1.3030085E-18
   78.85150       -1.3082856E-18
   79.01300       -1.3112405E-18
   79.17450       -1.3109762E-18
   79.33600       -1.3085098E-18
   79.49750       -1.3060753E-18
   79.65900       -1.3057851E-18
   79.82050       -1.3084403E-18
   79.98200       -1.3131339E-18
   80.14350       -1.3178299E-18
   80.30500       -1.3205313E-18
   80.46650       -1.3203760E-18
   80.62800       -1.3180841E-18
   80.78950       -1.3155157E-18
   80.95100       -1.3146045E-18
   81.11250       -1.3162516E-18
   81.27400       -1.3198141E-18
   81.43550       -1.3234687E-18
   81.59700       -1.3252621E-18
   81.75850       -1.3242327E-18
   81.92000       -1.3209749E-18
   82.08150       -1.3172956E-18
   82.24300       -1.3151623E-18
   82.40450       -1.3155441E-18
   82.56600       -1.3178406E-18
   82.72750       -1.3202660E-18
   82.88900       -1.3209882E-18
   83.05050       -1.3193061E-18
   83.21200       -1.3161297E-18
   83.37350       -1.3134389E-18
   83.53500       -1.3130328E-18
   83.69650       -1.3153678E-18
   83.85800       -1.3192346E-18
   84.01950       -1.3225050E-18
   84.18100       -1.3234638E-18
   84.34250       -1.3218737E-18
   84.50400       -1.3190511E-18
   84.66550       -1.3169393E-18
   84.82700       -1.3168018E-18
   84.98850       -1.3184297E-18
   85.15000       -1.3203610E-18
   85.31150       -1.3209205E-18
   85.47300       -1.3193595E-18
   85.63450       -1.3163490E-18
   85.79600       -1.3135147E-18
   85.95750       -1.3123581E-18
   86.11900       -1.3133099E-18
   86.28050       -1.3154889E-18
   86.44200       -1.3173260E-18
   86.60350       -1.3175929E-18
   86.76500       -1.3162032E-18
   86.92650       -1.3142802E-18
   87.08800       -1.3134565E-18
   87.24950       -1.3148349E-18
   87.41100       -1.3182227E-18
   87.57250       -1.3221389E-18
   87.73400       -1.3246406E-18
   87.89550       -1.3245131E-18
   88.05700       -1.3220986E-18
   88.21850       -1.3192055E-18
   88.38000       -1.3180538E-18
   88.54150       -1.3198715E-18
   88.70300       -1.3240195E-18
   88.86450       -1.3282679E-18
   89.02600       -1.3301525E-18
   89.18750       -1.3285778E-18
   89.34900       -1.3246197E-18
   89.51050       -1.3209372E-18
   89.67200       -1.3201112E-18
   89.83350       -1.3229641E-18
   89.99500       -1.3279807E-18
   90.15650       -1.3322206E-18
   90.31800       -1.3331501E-18
   90.47950       -1.3302216E-18
   90.64100       -1.3251885E-18
   90.80250       -1.3209999E-18
   90.96400       -1.3199966E-18
   91.12550       -1.3225420E-18
   91.28700       -1.3268863E-18
   91.44850       -1.3302812E-18
   91.61000       -1.3306132E-18
   91.77150       -1.3275867E-18
   91.93300       -1.3228279E-18
   92.09450       -1.3189088E-18
   92.25600       -1.3179059E-18
   92.41750       -1.3202639E-18
   92.57900       -1.3245851E-18
   92.74050       -1.3284280E-18
   92.90200       -1.3296895E-18
   93.06350       -1.3278111E-18
   93.22500       -1.3241336E-18
   93.38650       -1.3211692E-18
   93.54800       -1.3211589E-18
   93.70950       -1.3247382E-18
   93.87100       -1.3304961E-18
   94.03250       -1.3357456E-18
   94.19400       -1.3380939E-18
   94.35550       -1.3368945E-18
   94.51700       -1.3336726E-18
   94.67850       -1.3312488E-18
   94.84000       -1.3320629E-18
   95.00150       -1.3367049E-18
   95.16300       -1.3435385E-18
   95.32450       -1.3496345E-18
   95.48600       -1.3524560E-18
   95.64750       -1.3512878E-18
   95.80900       -1.3475889E-18
   95.97050       -1.3440843E-18
   96.13200       -1.3431501E-18
   96.29350       -1.3454262E-18
   96.45500       -1.3494508E-18
   96.61650       -1.3525066E-18
   96.77800       -1.3521885E-18
   96.93950       -1.3478110E-18
   97.10100       -1.3408548E-18
   97.26250       -1.3341917E-18
   97.42400       -1.3304823E-18
   97.58550       -1.3306496E-18
   97.74700       -1.3333095E-18
   97.90850       -1.3355566E-18
   98.07000       -1.3346860E-18
   98.23150       -1.3299115E-18
   98.39300       -1.3230176E-18
   98.55450       -1.3174493E-18
   98.71600       -1.3163053E-18
   98.87750       -1.3203810E-18
   99.03900       -1.3275131E-18
   99.20050       -1.3337440E-18
   99.36200       -1.3356928E-18
   99.52350       -1.3326947E-18
   99.68500       -1.3273224E-18
   99.84650       -1.3238598E-18
   100.0080       -1.3255955E-18
   100.1695       -1.3326586E-18
   100.3310       -1.3418221E-18
   100.4925       -1.3484493E-18
   100.6540       -1.3493952E-18
   100.8155       -1.3449881E-18
   100.9770       -1.3388085E-18
   101.1385       -1.3354339E-18
   101.3000       -1.3375842E-18
   101.4615       -1.3444760E-18
   101.6230       -1.3523855E-18
   101.7845       -1.3569966E-18
   101.9460       -1.3560278E-18
   102.1075       -1.3505352E-18
   102.2690       -1.3441853E-18
   102.4305       -1.3410126E-18
   102.5920       -1.3430335E-18
   102.7535       -1.3490795E-18
   102.9150       -1.3554827E-18
   103.0765       -1.3581773E-18
   103.2380       -1.3550509E-18
   103.3995       -1.3472200E-18
   103.5610       -1.3384926E-18
   103.7225       -1.3332292E-18
   103.8840       -1.3338138E-18
   104.0455       -1.3391760E-18
   104.2070       -1.3453724E-18
   104.3685       -1.3479502E-18
   104.5300       -1.3447566E-18
   104.6915       -1.3373823E-18
   104.8530       -1.3302616E-18
   105.0145       -1.3278875E-18
   105.1760       -1.3319152E-18
   105.3375       -1.3400574E-18
   105.4990       -1.3475422E-18
   105.6605       -1.3501895E-18
   105.8220       -1.3470599E-18
   105.9835       -1.3409381E-18
   106.1450       -1.3363913E-18
   106.3065       -1.3367728E-18
   106.4680       -1.3421762E-18
   106.6295       -1.3495893E-18
   106.7910       -1.3550063E-18
   106.9525       -1.3559879E-18
   107.1140       -1.3530473E-18
   107.2755       -1.3491127E-18
   107.4370       -1.3475939E-18
   107.5985       -1.3503376E-18
   107.7600       -1.3566452E-18
   107.9215       -1.3637616E-18
   108.0830       -1.3684239E-18
   108.2445       -1.3685953E-18
   108.4060       -1.3645259E-18
   108.5675       -1.3586248E-18
   108.7290       -1.3541839E-18
   108.8905       -1.3535332E-18
   109.0520       -1.3566063E-18
   109.2135       -1.3608490E-18
   109.3750       -1.3626686E-18
   109.5365       -1.3597399E-18
   109.6980       -1.3527131E-18
   109.8595       -1.3451055E-18
   110.0210       -1.3411880E-18
   110.1825       -1.3431462E-18
   110.3440       -1.3494293E-18
   110.5055       -1.3555923E-18
   110.6670       -1.3572113E-18
   110.8285       -1.3529415E-18
   110.9900       -1.3455622E-18
   111.1515       -1.3401999E-18
   111.3130       -1.3408961E-18
   111.4745       -1.3478775E-18
   111.6360       -1.3573613E-18
   111.7975       -1.3640155E-18
   111.9590       -1.3643667E-18
   112.1205       -1.3588999E-18
   112.2820       -1.3515635E-18
   112.4435       -1.3471787E-18
   112.6050       -1.3484986E-18
   112.7665       -1.3547065E-18
   112.9280       -1.3620648E-18
   113.0895       -1.3661496E-18
   113.2510       -1.3643184E-18
   113.4125       -1.3571428E-18
   113.5740       -1.3481280E-18
   113.7355       -1.3419136E-18
   113.8970       -1.3417852E-18
   114.0585       -1.3477664E-18
   114.2200       -1.3563694E-18
   114.3815       -1.3623776E-18
   114.5430       -1.3618813E-18
   114.7045       -1.3548533E-18
   114.8660       -1.3455338E-18
   115.0275       -1.3400368E-18
   115.1890       -1.3424542E-18
   115.3505       -1.3519452E-18
   115.5120       -1.3629260E-18
   115.6735       -1.3685017E-18
   115.8350       -1.3649995E-18
   115.9965       -1.3545493E-18
   116.1580       -1.3438730E-18
   116.3195       -1.3400082E-18
   116.4810       -1.3458158E-18
   116.6425       -1.3582429E-18
   116.8040       -1.3704198E-18
   116.9655       -1.3760544E-18
   117.1270       -1.3732015E-18
   117.2885       -1.3650955E-18
   117.4500       -1.3578051E-18
   117.6115       -1.3564419E-18
   117.7730       -1.3622846E-18
   117.9345       -1.3723156E-18
   118.0960       -1.3811279E-18
   118.2575       -1.3839301E-18
   118.4190       -1.3790830E-18
   118.5805       -1.3689931E-18
   118.7420       -1.3589801E-18