  -27.90000        6.4898333E-18
  -27.73850        6.4939745E-18
  -27.57700        6.4998814E-18
  -27.41550        6.5047775E-18
  -27.25400        6.5075449E-18
  -27.09250        6.5092923E-18
  -26.93100        6.5120832E-18
  -26.76950        6.5170186E-18
  -26.60800        6.5232869E-18
  -26.44650        6.5288845E-18
  -26.28500        6.5323371E-18
  -26.12350        6.5339522E-18
  -25.96200        6.5355048E-18
  -25.80050        6.5386444E-18
  -25.63900        6.5434329E-18
  -25.47750        6.5483666E-18
  -25.31600        6.5518164E-18
  -25.15450        6.5535336E-18
  -24.99300        6.5548108E-18
  -24.83150        6.5572324E-18
  -24.67000        6.5612008E-18
  -24.50850        6.5655699E-18
  -24.34700        6.5686764E-18
  -24.18550        6.5698469E-18
  -24.02400        6.5700859E-18
  -23.86250        6.5712911E-18
  -23.70100        6.5746185E-18
  -23.53950        6.5793950E-18
  -23.37800        6.5836178E-18
  -23.21650        6.5856741E-18
  -23.05500        6.5857606E-18
  -22.89350        6.5857147E-18
  -22.73200        6.5874067E-18
  -22.57050        6.5911430E-18
  -22.40900        6.5954626E-18
  -22.24750        6.5984454E-18
  -22.08600        6.5993681E-18
  -21.92450        6.5993230E-18
  -21.76300        6.6002735E-18
  -21.60150        6.6033386E-18
  -21.44000        6.6077611E-18
  -21.27850        6.6115074E-18
  -21.11700        6.6130480E-18
  -20.95550        6.6127647E-18
  -20.79400        6.6127159E-18
  -20.63250        6.6149117E-18
  -20.47100        6.6196150E-18
  -20.30950        6.6251199E-18
  -20.14800        6.6291251E-18
  -19.98650        6.6305251E-18
  -19.82500        6.6301500E-18
  -19.66350        6.6299411E-18
  -19.50200        6.6312993E-18
  -19.34050        6.6339922E-18
  -19.17900        6.6365114E-18
  -19.01750        6.6375607E-18
  -18.85600        6.6373303E-18
  -18.69450        6.6374044E-18
  -18.53300        6.6393867E-18
  -18.37150        6.6434953E-18
  -18.21000        6.6484071E-18
  -18.04850        6.6524235E-18
  -17.88700        6.6548653E-18
  -17.72550        6.6564837E-18
  -17.56400        6.6585942E-18
  -17.40250        6.6617384E-18
  -17.24100        6.6650707E-18
  -17.07950        6.6670336E-18
  -16.91800        6.6667974E-18
  -16.75650        6.6651860E-18
  -16.59500        6.6641856E-18
  -16.43350        6.6653631E-18
  -16.27200        6.6685634E-18
  -16.11050        6.6720537E-18
  -15.94900        6.6740141E-18
  -15.78750        6.6740671E-18
  -15.62600        6.6735468E-18
  -15.46450        6.6743214E-18
  -15.30300        6.6771909E-18
  -15.14150        6.6812048E-18
  -14.98000        6.6844747E-18
  -14.81850        6.6857824E-18
  -14.65700        6.6856240E-18
  -14.49550        6.6857688E-18
  -14.33400        6.6876849E-18
  -14.17250        6.6912315E-18
  -14.01100        6.6947838E-18
  -13.84950        6.6967025E-18
  -13.68800        6.6968365E-18
  -13.52650        6.6967235E-18
  -13.36500        6.6983146E-18
  -13.20350        6.7023314E-18
  -13.04200        6.7076370E-18
  -12.88050        6.7121476E-18
  -12.71900        6.7145054E-18
  -12.55750        6.7151370E-18
  -12.39600        6.7158049E-18
  -12.23450        6.7180483E-18
  -12.07300        6.7218616E-18
  -11.91150        6.7257650E-18
  -11.75000        6.7281481E-18
  -11.58850        6.7286763E-18
  -11.42700        6.7285142E-18
  -11.26550        6.7292313E-18
  -11.10400        6.7314155E-18
  -10.94250        6.7342068E-18
  -10.78100        6.7361230E-18
  -10.61950        6.7363939E-18
  -10.45800        6.7356089E-18
  -10.29650        6.7350948E-18
  -10.13500        6.7356097E-18
  -9.973500        6.7365767E-18
  -9.812000        6.7366251E-18
  -9.650500        6.7349860E-18
  -9.489000        6.7324830E-18
  -9.327500        6.7311123E-18
  -9.166000        6.7324875E-18
  -9.004500        6.7364547E-18
  -8.843000        6.7410976E-18
  -8.681500        6.7441793E-18
  -8.520000        6.7448634E-18
  -8.358500        6.7443017E-18
  -8.197000        6.7445966E-18
  -8.035500        6.7470145E-18
  -7.874000        6.7509432E-18
  -7.712500        6.7544574E-18
  -7.551000        6.7559881E-18
  -7.389500        6.7556461E-18
  -7.228000        6.7551006E-18
  -7.066500        6.7561647E-18
  -6.905000        6.7593237E-18
  -6.743500        6.7634584E-18
  -6.582000        6.7669131E-18
  -6.420500        6.7689393E-18
  -6.259000        6.7702260E-18
  -6.097500        6.7721169E-18
  -5.936000        6.7752424E-18
  -5.774500        6.7788299E-18
  -5.613000        6.7813354E-18
  -5.451500        6.7818276E-18
  -5.290000        6.7808739E-18
  -5.128500        6.7801145E-18
  -4.967000        6.7808726E-18
  -4.805500        6.7830328E-18
  -4.644000        6.7851624E-18
  -4.482500        6.7857840E-18
  -4.321000        6.7847070E-18
  -4.159500        6.7832748E-18
  -3.998000        6.7832983E-18
  -3.836500        6.7855772E-18
  -3.675000        6.7892681E-18
  -3.513500        6.7926455E-18
  -3.352000        6.7945654E-18
  -3.190500        6.7953404E-18
  -3.029000        6.7963111E-18
  -2.867500        6.7985416E-18
  -2.706000        6.8018425E-18
  -2.544500        6.8049647E-18
  -2.383000        6.8067870E-18
  -2.221500        6.8074036E-18
  -2.060000        6.8081344E-18
  -1.898500        6.8103777E-18
  -1.737000        6.8142944E-18
  -1.575500        6.8185110E-18
  -1.414000        6.8211617E-18
  -1.252500        6.8214281E-18
  -1.091000        6.8202245E-18
 -0.9295000        6.8194180E-18
 -0.7680000        6.8202597E-18
 -0.6065000        6.8223528E-18
 -0.4450000        6.8240275E-18
 -0.2835000        6.8237925E-18
 -0.1220000        6.8216539E-18
  3.9500002E-02    6.8191893E-18
  0.2010000        6.8183282E-18
  0.3625000        6.8198221E-18
  0.5240000        6.8227098E-18
  0.6855000        6.8251884E-18
  0.8470000        6.8261231E-18
   1.008500        6.8258692E-18
   1.170000        6.8257571E-18
   1.331500        6.8267874E-18
   1.493000        6.8287329E-18
   1.654500        6.8304270E-18
   1.816000        6.8308997E-18
   1.977500        6.8303446E-18
   2.139000        6.8300324E-18
   2.300500        6.8312293E-18
   2.462000        6.8340591E-18
   2.623500        6.8373418E-18
   2.785000        6.8395983E-18
   2.946500        6.8403593E-18
   3.108000        6.8405814E-18
   3.269500        6.8417825E-18
   3.431000        6.8446528E-18
   3.592500        6.8483999E-18
   3.754000        6.8513745E-18
   3.915500        6.8524486E-18
   4.077000        6.8519448E-18
   4.238500        6.8513377E-18
   4.400000        6.8519837E-18
   4.561500        6.8539673E-18
   4.723000        6.8560720E-18
   4.884500        6.8569348E-18
   5.046000        6.8563615E-18
   5.207500        6.8556034E-18
   5.369000        6.8562900E-18
   5.530500        6.8589610E-18
   5.692000        6.8625158E-18
   5.853500        6.8650933E-18
   6.015000        6.8656251E-18
   6.176500        6.8647425E-18
   6.338000        6.8642756E-18
   6.499500        6.8657509E-18
   6.661000        6.8691278E-18
   6.822500        6.8728183E-18
   6.984000        6.8750285E-18
   7.145500        6.8752750E-18
   7.307000        6.8747953E-18
   7.468500        6.8754922E-18
   7.630000        6.8783542E-18
   7.791500        6.8827093E-18
   7.953000        6.8868849E-18
   8.114500        6.8895906E-18
   8.276000        6.8908260E-18
   8.437500        6.8916102E-18
   8.599000        6.8929043E-18
   8.760500        6.8947382E-18
   8.922000        6.8962862E-18
   9.083500        6.8968065E-18
   9.245000        6.8965100E-18
   9.406500        6.8964790E-18
   9.568000        6.8976221E-18
   9.729500        6.8996661E-18
   9.891000        6.9012038E-18
   10.05250        6.9008725E-18
   10.21400        6.8986359E-18
   10.37550        6.8959719E-18
   10.53700        6.8947456E-18
   10.69850        6.8956729E-18
   10.86000        6.8976561E-18
   11.02150        6.8985899E-18
   11.18300        6.8970626E-18
   11.34450        6.8935855E-18
   11.50600        6.8903210E-18
   11.66750        6.8894479E-18
   11.82900        6.8915022E-18
   11.99050        6.8950575E-18
   12.15200        6.8979691E-18
   12.31350        6.8990821E-18
   12.47500        6.8989837E-18
   12.63650        6.8992955E-18
   12.79800        6.9012286E-18
   12.95950        6.9046275E-18
   13.12100        6.9082419E-18
   13.28250        6.9108715E-18
   13.44400        6.9123629E-18
   13.60550        6.9135979E-18
   13.76700        6.9155128E-18
   13.92850        6.9181205E-18
   14.09000        6.9204883E-18
   14.25150        6.9216989E-18
   14.41300        6.9218581E-18
   14.57450        6.9221315E-18
   14.73600        6.9237189E-18
   14.89750        6.9267046E-18
   15.05900        6.9298173E-18
   15.22050        6.9313839E-18
   15.38200        6.9306986E-18
   15.54350        6.9287014E-18
   15.70500        6.9273026E-18
   15.86650        6.9278717E-18
   16.02800        6.9301117E-18
   16.18950        6.9323162E-18
   16.35100        6.9328236E-18
   16.51250        6.9314414E-18
   16.67400        6.9296071E-18
   16.83550        6.9291754E-18
   16.99700        6.9309013E-18
   17.15850        6.9338998E-18
   17.32000        6.9364595E-18
   17.48150        6.9374860E-18
   17.64300        6.9373566E-18
   17.80450        6.9374997E-18
   17.96600        6.9391007E-18
   18.12750        6.9420496E-18
   18.28900        6.9450878E-18
   18.45050        6.9469887E-18
   18.61200        6.9477100E-18
   18.77350        6.9484239E-18
   18.93500        6.9504157E-18
   19.09650        6.9538543E-18
   19.25800        6.9575435E-18
   19.41950        6.9599043E-18
   19.58100        6.9602898E-18
   19.74250        6.9595254E-18
   19.90400        6.9591971E-18
   20.06550        6.9602815E-18
   20.22700        6.9622833E-18
   20.38850        6.9636324E-18
   20.55000        6.9630525E-18
   20.71150        6.9606959E-18
   20.87300        6.9580572E-18
   21.03450        6.9567221E-18
   21.19600        6.9570729E-18
   21.35750        6.9580754E-18
   21.51900        6.9582805E-18
   21.68050        6.9571341E-18
   21.84200        6.9554235E-18
   22.00350        6.9545425E-18
   22.16500        6.9552249E-18
   22.32650        6.9568884E-18
   22.48800        6.9581589E-18
   22.64950        6.9581465E-18
   22.81100        6.9573111E-18
   22.97250        6.9571109E-18
   23.13400        6.9586974E-18
   23.29550        6.9618242E-18
   23.45700        6.9649865E-18
   23.61850        6.9667178E-18
   23.78000        6.9668824E-18
   23.94150        6.9668286E-18
   24.10300        6.9682381E-18
   24.26450        6.9716552E-18
   24.42600        6.9759160E-18
   24.58750        6.9790295E-18
   24.74900        6.9797864E-18
   24.91050        6.9787698E-18
   25.07200        6.9779054E-18
   25.23350        6.9788815E-18
   25.39500        6.9817832E-18
   25.55650        6.9850737E-18
   25.71800        6.9869241E-18
   25.87950        6.9867198E-18
   26.04100        6.9854667E-18
   26.20250        6.9848372E-18
   26.36400        6.9857165E-18
   26.52550        6.9875172E-18
   26.68700        6.9887721E-18
   26.84850        6.9884561E-18
   27.01000        6.9868671E-18
   27.17150        6.9853252E-18
   27.33300        6.9849844E-18
   27.49450        6.9858166E-18
   27.65600        6.9867149E-18
   27.81750        6.9865916E-18
   27.97900        6.9854501E-18
   28.14050        6.9844327E-18
   28.30200        6.9847884E-18
   28.46350        6.9867149E-18
   28.62500        6.9891220E-18
   28.78650        6.9905489E-18
   28.94800        6.9904579E-18
   29.10950        6.9897440E-18
   29.27100        6.9899946E-18
   29.43250        6.9920858E-18
   29.59400        6.9953407E-18
   29.75550        6.9980290E-18
   29.91700        6.9988389E-18
   30.07850        6.9980481E-18
   30.24000        6.9973450E-18
   30.40150        6.9983930E-18
   30.56300        7.0013733E-18
   30.72450        7.0047830E-18
   30.88600        7.0066656E-18
   31.04750        7.0062661E-18
   31.20900        7.0046713E-18
   31.37050        7.0038962E-18
   31.53200        7.0051585E-18
   31.69350        7.0078080E-18
   31.85500        7.0098511E-18
   32.01650        7.0096509E-18
   32.17800        7.0073729E-18
   32.33950        7.0048922E-18
   32.50100        7.0042445E-18
   32.66250        7.0059485E-18
   32.82400        7.0086128E-18
   32.98550        7.0101828E-18
   33.14700        7.0097047E-18
   33.30850        7.0081099E-18
   33.47000        7.0073489E-18
   33.63150        7.0086798E-18
   33.79300        7.0116023E-18
   33.95450        7.0143559E-18
   34.11600        7.0155372E-18
   34.27750        7.0153552E-18
   34.43900        7.0154089E-18
   34.60050        7.0171824E-18
   34.76200        7.0206284E-18
   34.92350        7.0241382E-18
   35.08500        7.0259662E-18
   35.24650        7.0258074E-18
   35.40800        7.0251002E-18
   35.56950        7.0257355E-18
   35.73100        7.0283179E-18
   35.89250        7.0315299E-18
   36.05400        7.0332521E-18
   36.21550        7.0324662E-18
   36.37700        7.0302593E-18
   36.53850        7.0289730E-18
   36.70000        7.0301873E-18
   36.86150        7.0333042E-18
   37.02300        7.0360049E-18
   37.18450        7.0362332E-18
   37.34600        7.0340106E-18
   37.50750        7.0314513E-18
   37.66900        7.0309442E-18
   37.83050        7.0330610E-18
   37.99200        7.0360372E-18
   38.15350        7.0372978E-18
   38.31500        7.0357245E-18
   38.47650        7.0326515E-18
   38.63800        7.0307192E-18
   38.79950        7.0315861E-18
   38.96100        7.0344862E-18
   39.12250        7.0369140E-18
   39.28400        7.0368255E-18
   39.44550        7.0344482E-18
   39.60700        7.0321056E-18
   39.76850        7.0321891E-18
   39.93000        7.0350867E-18
   40.09150        7.0388620E-18
   40.25300        7.0409746E-18
   40.41450        7.0405023E-18
   40.57600        7.0388719E-18
   40.73750        7.0384997E-18
   40.89900        7.0405883E-18
   41.06050        7.0440683E-18
   41.22200        7.0466193E-18
   41.38350        7.0468095E-18
   41.54500        7.0454083E-18
   41.70650        7.0446564E-18
   41.86800        7.0461743E-18
   42.02950        7.0493920E-18
   42.19100        7.0520166E-18
   42.35250        7.0521688E-18
   42.51400        7.0502283E-18
   42.67550        7.0486575E-18
   42.83700        7.0498370E-18
   42.99850        7.0538315E-18
   43.16000        7.0581717E-18
   43.32150        7.0599460E-18
   43.48300        7.0584364E-18
   43.64450        7.0559474E-18
   43.80600        7.0559813E-18
   43.96750        7.0602496E-18
   44.12900        7.0670622E-18
   44.29050        7.0725522E-18
   44.45200        7.0737781E-18
   44.61350        7.0711154E-18
   44.77500        7.0678522E-18
   44.93650        7.0673675E-18
   45.09800        7.0702866E-18
   45.25950        7.0740742E-18
   45.42100        7.0753241E-18
   45.58250        7.0726871E-18
   45.74400        7.0679060E-18
   45.90550        7.0641795E-18
   46.06700        7.0633920E-18
   46.22850        7.0646981E-18
   46.39000        7.0655700E-18
   46.55150        7.0642870E-18
   46.71300        7.0615176E-18
   46.87450        7.0595796E-18
   47.03600        7.0601015E-18
   47.19750        7.0623787E-18
   47.35900        7.0640108E-18
   47.52050        7.0632663E-18
   47.68200        7.0608799E-18
   47.84350        7.0595142E-18
   48.00500        7.0612835E-18
   48.16650        7.0656304E-18
   48.32800        7.0695967E-18
   48.48950        7.0703776E-18
   48.65100        7.0679796E-18
   48.81250        7.0654790E-18
   48.97400        7.0665279E-18
   49.13550        7.0721122E-18
   49.29700        7.0794708E-18
   49.45850        7.0842626E-18
   49.62000        7.0842146E-18
   49.78150        7.0810796E-18
   49.94300        7.0791341E-18
   50.10450        7.0814759E-18
   50.26600        7.0873488E-18
   50.42750        7.0927942E-18
   50.58900        7.0940308E-18
   50.75050        7.0906402E-18
   50.91200        7.0858525E-18
   51.07350        7.0837250E-18
   51.23500        7.0857077E-18
   51.39650        7.0895160E-18
   51.55800        7.0912722E-18
   51.71950        7.0889221E-18
   51.88100        7.0839260E-18
   52.04250        7.0797810E-18
   52.20400        7.0788851E-18
   52.36550        7.0805899E-18
   52.52700        7.0821252E-18
   52.68850        7.0813468E-18
   52.85000        7.0787139E-18
   53.01150        7.0767402E-18
   53.17300        7.0775385E-18
   53.33450        7.0808034E-18
   53.49600        7.0841460E-18
   53.65750        7.0854281E-18
   53.81900        7.0848938E-18
   53.98050        7.0849864E-18
   54.14200        7.0879485E-18
   54.30350        7.0934443E-18
   54.46500        7.0985894E-18
   54.62650        7.1004729E-18
   54.78800        7.0989252E-18
   54.94950        7.0968846E-18
   55.11100        7.0978954E-18
   55.27250        7.1028833E-18
   55.43400        7.1091095E-18
   55.59550        7.1123495E-18
   55.75700        7.1105124E-18
   55.91850        7.1055766E-18
   56.08000        7.1020644E-18
   56.24150        7.1032597E-18
   56.40300        7.1083824E-18
   56.56450        7.1132015E-18
   56.72600        7.1136069E-18
   56.88750        7.1090218E-18
   57.04900        7.1027873E-18
   57.21050        7.0992503E-18
   57.37200        7.1001743E-18
   57.53350        7.1034772E-18
   57.69500        7.1052308E-18
   57.85650        7.1030496E-18
   58.01800        7.0979831E-18
   58.17950        7.0934195E-18
   58.34100        7.0921407E-18
   58.50250        7.0941383E-18
   58.66400        7.0970004E-18
   58.82550        7.0982883E-18
   58.98700        7.0976017E-18
   59.14850        7.0965338E-18
   59.31000        7.0968258E-18
   59.47150        7.0986647E-18
   59.63300        7.1007359E-18
   59.79450        7.1017848E-18
   59.95600        7.1020363E-18
   60.11750        7.1029925E-18
   60.27900        7.1057883E-18
   60.44050        7.1097274E-18
   60.60200        7.1125630E-18
   60.76350        7.1124761E-18
   60.92500        7.1099863E-18
   61.08650        7.1078993E-18
   61.24800        7.1090499E-18
   61.40950        7.1137301E-18
   61.57100        7.1191457E-18
   61.73250        7.1215511E-18
   61.89400        7.1193541E-18
   62.05550        7.1145465E-18
   62.21700        7.1112130E-18
   62.37850        7.1122858E-18
   62.54000        7.1171704E-18
   62.70150        7.1221632E-18
   62.86300        7.1233461E-18
   63.02450        7.1196163E-18
   63.18600        7.1134596E-18
   63.34750        7.1089167E-18
   63.50900        7.1085131E-18
   63.67050        7.1116208E-18
   63.83200        7.1153704E-18
   63.99350        7.1170703E-18
   64.15500        7.1160892E-18
   64.31650        7.1139071E-18
   64.47800        7.1126258E-18
   64.63950        7.1133761E-18
   64.80100        7.1158088E-18
   64.96250        7.1188090E-18
   65.12400        7.1215395E-18
   65.28550        7.1238656E-18
   65.44700        7.1259393E-18
   65.60850        7.1276416E-18
   65.77000        7.1286045E-18
   65.93150        7.1287798E-18
   66.09300        7.1288253E-18
   66.25450        7.1297121E-18
   66.41600        7.1318230E-18
   66.57750        7.1343741E-18
   66.73900        7.1358092E-18
   66.90050        7.1349390E-18
   67.06200        7.1319587E-18
   67.22350        7.1284779E-18
   67.38500        7.1264513E-18
   67.54650        7.1267441E-18
   67.70800        7.1284763E-18
   67.86950        7.1297104E-18
   68.03100        7.1289626E-18
   68.19250        7.1263215E-18
   68.35400        7.1233395E-18
   68.51550        7.1218522E-18
   68.67700        7.1227075E-18
   68.83850        7.1253048E-18
   69.00000        7.1281462E-18
   69.16150        7.1299288E-18
   69.32300        7.1303995E-18
   69.48450        7.1303556E-18
   69.64600        7.1308858E-18
   69.80750        7.1324459E-18
   69.96900        7.1345254E-18
   70.13050        7.1361012E-18
   70.29200        7.1364610E-18
   70.45350        7.1357232E-18
   70.61500        7.1347314E-18
   70.77650        7.1344303E-18
   70.93800        7.1351946E-18
   71.09950        7.1365603E-18
   71.26100        7.1375984E-18
   71.42250        7.1376704E-18
   71.58400        7.1369970E-18
   71.74550        7.1365049E-18
   71.90700        7.1370624E-18
   72.06850        7.1387449E-18
   72.23000        7.1407425E-18
   72.39150        7.1420007E-18
   72.55300        7.1420437E-18
   72.71450        7.1413579E-18
   72.87600        7.1410064E-18
   73.03750        7.1417599E-18
   73.19900        7.1434400E-18
   73.36050        7.1450314E-18
   73.52200        7.1455493E-18
   73.68350        7.1448850E-18
   73.84500        7.1438891E-18
   74.00650        7.1435905E-18
   74.16800        7.1442804E-18
   74.32950        7.1453061E-18
   74.49100        7.1457023E-18
   74.65250        7.1450621E-18
   74.81400        7.1438494E-18
   74.97550        7.1428940E-18
   75.13700        7.1425259E-18
   75.29850        7.1421793E-18
   75.46000        7.1409038E-18
   75.62150        7.1383784E-18
   75.78300        7.1354577E-18
   75.94450        7.1336006E-18
   76.10600        7.1335824E-18
   76.26750        7.1346942E-18
   76.42900        7.1352500E-18
   76.59050        7.1340589E-18
   76.75200        7.1315583E-18
   76.91350        7.1295772E-18
   77.07500        7.1298337E-18
   77.23650        7.1324418E-18
   77.39800        7.1357009E-18
   77.55950        7.1374727E-18
   77.72100        7.1370351E-18
   77.88250        7.1358059E-18
   78.04400        7.1361955E-18
   78.20550        7.1395274E-18
   78.36700        7.1448230E-18
   78.52850        7.1495884E-18
   78.69000        7.1519210E-18
   78.85150        7.1520848E-18
   79.01300        7.1521890E-18
   79.17450        7.1542553E-18
   79.33600        7.1583730E-18
   79.49750        7.1625255E-18
   79.65900        7.1642783E-18
   79.82050        7.1628911E-18
   79.98200        7.1600018E-18
   80.14350        7.1582291E-18
   80.30500        7.1589115E-18
   80.46650        7.1609530E-18
   80.62800        7.1618373E-18
   80.78950        7.1598694E-18
   80.95100        7.1556566E-18
   81.11250        7.1515687E-18
   81.27400        7.1497166E-18
   81.43550        7.1502518E-18
   81.59700        7.1514082E-18
   81.75850        7.1511700E-18
   81.92000        7.1490267E-18
   82.08150        7.1462929E-18
   82.24300        7.1447295E-18
   82.40450        7.1448114E-18
   82.56600        7.1452804E-18
   82.72750        7.1444210E-18
   82.88900        7.1417906E-18
   83.05050        7.1387225E-18
   83.21200        7.1370781E-18
   83.37350        7.1374338E-18
   83.53500        7.1384380E-18
   83.69650        7.1380178E-18
   83.85800        7.1353832E-18
   84.01950        7.1320083E-18
   84.18100        7.1305558E-18
   84.34250        7.1325625E-18
   84.50400        7.1368903E-18
   84.66550        7.1404530E-18
   84.82700        7.1407855E-18
   84.98850        7.1382783E-18
   85.15000        7.1360582E-18
   85.31150        7.1374768E-18
   85.47300        7.1432935E-18
   85.63450        7.1509077E-18
   85.79600        7.1563291E-18
   85.95750        7.1572812E-18
   86.11900        7.1549138E-18
   86.28050        7.1527747E-18
   86.44200        7.1538881E-18
   86.60350        7.1583466E-18
   86.76500        7.1633742E-18
   86.92650        7.1656977E-18
   87.08800        7.1641724E-18
   87.24950        7.1604898E-18
   87.41100        7.1575384E-18
   87.57250        7.1569908E-18
   87.73400        7.1581985E-18
   87.89550        7.1591250E-18
   88.05700        7.1583077E-18
   88.21850        7.1560338E-18
   88.38000        7.1538343E-18
   88.54150        7.1528938E-18
   88.70300        7.1529517E-18
   88.86450        7.1527044E-18
   89.02600        7.1512800E-18
   89.18750        7.1492774E-18
   89.34900        7.1482773E-18
   89.51050        7.1492633E-18
   89.67200        7.1514694E-18
   89.83350        7.1528955E-18
   89.99500        7.1521196E-18
   90.15650        7.1497629E-18
   90.31800        7.1482169E-18
   90.47950        7.1496885E-18
   90.64100        7.1541883E-18
   90.80250        7.1592507E-18
   90.96400        7.1617736E-18
   91.12550        7.1605593E-18
   91.28700        7.1573912E-18
   91.44850        7.1556243E-18
   91.61000        7.1573862E-18
   91.77150        7.1617413E-18
   91.93300        7.1654206E-18
   92.09450        7.1654885E-18
   92.25600        7.1617637E-18
   92.41750        7.1569486E-18
   92.57900        7.1544282E-18
   92.74050        7.1555532E-18
   92.90200        7.1586526E-18
   93.06350        7.1605130E-18
   93.22500        7.1590464E-18
   93.38650        7.1548840E-18
   93.54800        7.1506100E-18
   93.70950        7.1484320E-18
   93.87100        7.1483948E-18
   94.03250        7.1486272E-18
   94.19400        7.1472839E-18
   94.35550        7.1443068E-18
   94.51700        7.1414531E-18
   94.67850        7.1406267E-18
   94.84000        7.1421173E-18
   95.00150        7.1443482E-18
   95.16300        7.1453557E-18
   95.32450        7.1446319E-18
   95.48600        7.1436054E-18
   95.64750        7.1442771E-18
   95.80900        7.1472442E-18
   95.97050        7.1509565E-18
   96.13200        7.1529823E-18
   96.29350        7.1521874E-18
   96.45500        7.1498382E-18
   96.61650        7.1486007E-18
   96.77800        7.1502667E-18
   96.93950        7.1542007E-18
   97.10100        7.1578916E-18
   97.26250        7.1591283E-18
   97.42400        7.1579140E-18
   97.58550        7.1564598E-18
   97.74700        7.1572051E-18
   97.90850        7.1606420E-18
   98.07000        7.1648416E-18
   98.23150        7.1671304E-18
   98.39300        7.1664091E-18
   98.55450        7.1640765E-18
   98.71600        7.1627430E-18
   98.87750        7.1639400E-18
   99.03900        7.1668103E-18
   99.20050        7.1689270E-18
   99.36200        7.1684547E-18
   99.52350        7.1657656E-18
   99.68500        7.1631103E-18
   99.84650        7.1626611E-18
   100.0080        7.1646439E-18
   100.1695        7.1671618E-18
   100.3310        7.1678401E-18
   100.4925        7.1657771E-18
   100.6540        7.1621524E-18
   100.8155        7.1590704E-18
   100.9770        7.1577444E-18
   101.1385        7.1576451E-18
   101.3000        7.1572018E-18
   101.4615        7.1553249E-18
   101.6230        7.1523297E-18
   101.7845        7.1495239E-18
   101.9460        7.1479555E-18
   102.1075        7.1475444E-18
   102.2690        7.1473649E-18
   102.4305        7.1467487E-18
   102.5920        7.1460679E-18
   102.7535        7.1464013E-18
   102.9150        7.1483733E-18
   103.0765        7.1513172E-18
   103.2380        7.1536275E-18
   103.3995        7.1541023E-18
   103.5610        7.1530865E-18
   103.7225        7.1523859E-18
   103.8840        7.1538930E-18
   104.0455        7.1580157E-18
   104.2070        7.1631790E-18
   104.3685        7.1668732E-18
   104.5300        7.1674762E-18
   104.6915        7.1654339E-18
   104.8530        7.1628770E-18
   105.0145        7.1619820E-18
   105.1760        7.1633494E-18
   105.3375        7.1656274E-18
   105.4990        7.1665828E-18
   105.6605        7.1647572E-18
   105.8220        7.1604931E-18
   105.9835        7.1556483E-18
   106.1450        7.1523272E-18
   106.3065        7.1515604E-18
   106.4680        7.1528276E-18
   106.6295        7.1546598E-18
   106.7910        7.1557484E-18
   106.9525        7.1557368E-18
   107.1140        7.1551909E-18
   107.2755        7.1549750E-18
   107.4370        7.1555854E-18
   107.5985        7.1569503E-18
   107.7600        7.1586741E-18
   107.9215        7.1604220E-18
   108.0830        7.1620739E-18
   108.2445        7.1636074E-18
   108.4060        7.1648813E-18
   108.5675        7.1656316E-18
   108.7290        7.1657341E-18
   108.8905        7.1654686E-18
   109.0520        7.1654554E-18
   109.2135        7.1661833E-18
   109.3750        7.1674944E-18
   109.5365        7.1685747E-18
   109.6980        7.1685350E-18
   109.8595        7.1671709E-18
   110.0210        7.1652122E-18
   110.1825        7.1637919E-18
   110.3440        7.1635090E-18
   110.5055        7.1638523E-18
   110.6670        7.1635512E-18
   110.8285        7.1616313E-18
   110.9900        7.1583863E-18
   111.1515        7.1553613E-18
   111.3130        7.1542289E-18
   111.4745        7.1554117E-18
   111.6360        7.1576468E-18
   111.7975        7.1589215E-18
   111.9590        7.1580529E-18
   112.1205        7.1556078E-18
   112.2820        7.1534042E-18
   112.4435        7.1530113E-18
   112.6050        7.1544795E-18
   112.7665        7.1563316E-18
   112.9280        7.1568337E-18
   113.0895        7.1554812E-18
   113.2510        7.1534488E-18
   113.4125        7.1525960E-18
   113.5740        7.1538699E-18
   113.7355        7.1565053E-18
   113.8970        7.1586907E-18
   114.0585        7.1590637E-18
   114.2200        7.1577345E-18
   114.3815        7.1560081E-18
   114.5430        7.1551876E-18
   114.7045        7.1555532E-18
   114.8660        7.1563407E-18
   115.0275        7.1566401E-18
   115.1890        7.1563365E-18
   115.3505        7.1561959E-18
   115.5120        7.1570388E-18
   115.6735        7.1587875E-18
   115.8350        7.1604137E-18
   115.9965        7.1608736E-18
   116.1580        7.1601639E-18
   116.3195        7.1594219E-18
   116.4810        7.1599108E-18
   116.6425        7.1618149E-18
   116.8040        7.1639689E-18
   116.9655        7.1647837E-18
   117.1270        7.1635950E-18
   117.2885        7.1612798E-18
   117.4500        7.1595700E-18
   117.6115        7.1596163E-18
   117.7730        7.1610035E-18
   117.9345        7.1621160E-18
   118.0960        7.1615701E-18
   118.2575        7.1594484E-18
   118.4190        7.1572208E-18
   118.5805        7.1564333E-18
   118.7420        7.1573730E-18