  -27.90000        8.8669833E-18
  -27.73850        8.9134079E-18
  -27.57700        8.9803070E-18
  -27.41550        9.0325013E-18
  -27.25400        9.0467048E-18
  -27.09250        9.0252171E-18
  -26.93100        8.9938628E-18
  -26.76950        8.9855232E-18
  -26.60800        9.0194351E-18
  -26.44650        9.0889969E-18
  -26.28500        9.1655243E-18
  -26.12350        9.2156382E-18
  -25.96200        9.2215642E-18
  -25.80050        9.1918924E-18
  -25.63900        9.1562417E-18
  -25.47750        9.1471402E-18
  -25.31600        9.1802696E-18
  -25.15450        9.2451206E-18
  -24.99300        9.3117426E-18
  -24.83150        9.3492808E-18
  -24.67000        9.3448968E-18
  -24.50850        9.3114779E-18
  -24.34700        9.2794924E-18
  -24.18550        9.2781392E-18
  -24.02400        9.3174393E-18
  -23.86250        9.3822547E-18
  -23.70100        9.4418076E-18
  -23.53950        9.4687083E-18
  -23.37800        9.4557390E-18
  -23.21650        9.4200710E-18
  -23.05500        9.3924638E-18
  -22.89350        9.3982011E-18
  -22.73200        9.4415768E-18
  -22.57050        9.5034475E-18
  -22.40900        9.5532338E-18
  -22.24750        9.5678584E-18
  -22.08600        9.5458884E-18
  -21.92450        9.5082269E-18
  -21.76300        9.4850377E-18
  -21.60150        9.4971088E-18
  -21.44000        9.5432075E-18
  -21.27850        9.6011838E-18
  -21.11700        9.6419903E-18
  -20.95550        9.6478153E-18
  -20.79400        9.6230429E-18
  -20.63250        9.5912891E-18
  -20.47100        9.5804836E-18
  -20.30950        9.6053404E-18
  -20.14800        9.6581584E-18
  -19.98650        9.7136283E-18
  -19.82500        9.7445797E-18
  -19.66350        9.7388225E-18
  -19.50200        9.7065840E-18
  -19.34050        9.6740253E-18
  -19.17900        9.6669306E-18
  -19.01750        9.6948049E-18
  -18.85600        9.7452539E-18
  -18.69450        9.7920458E-18
  -18.53300        9.8117418E-18
  -18.37150        9.7984267E-18
  -18.21000        9.7673826E-18
  -18.04850        9.7454226E-18
  -17.88700        9.7539938E-18
  -17.72550        9.7956308E-18
  -17.56400        9.8522042E-18
  -17.40250        9.8960530E-18
  -17.24100        9.9070810E-18
  -17.07950        9.8851566E-18
  -16.91800        9.8501495E-18
  -16.75650        9.8295899E-18
  -16.59500        9.8416452E-18
  -16.43350        9.8840068E-18
  -16.27200        9.9355732E-18
  -16.11050        9.9698458E-18
  -15.94900        9.9716615E-18
  -15.78750        9.9468030E-18
  -15.62600        9.9184986E-18
  -15.46450        9.9129275E-18
  -15.30300        9.9427854E-18
  -15.14150        9.9991073E-18
  -14.98000        1.0056493E-17
  -14.81850        1.0088533E-17
  -14.65700        1.0083876E-17
  -14.49550        1.0053014E-17
  -14.33400        1.0021585E-17
  -14.17250        1.0014387E-17
  -14.01100        1.0040025E-17
  -13.84950        1.0085692E-17
  -13.68800        1.0125302E-17
  -13.52650        1.0135897E-17
  -13.36500        1.0112125E-17
  -13.20350        1.0069834E-17
  -13.04200        1.0036540E-17
  -12.88050        1.0034703E-17
  -12.71900        1.0068130E-17
  -12.55750        1.0119848E-17
  -12.39600        1.0162745E-17
  -12.23450        1.0176331E-17
  -12.07300        1.0159297E-17
  -11.91150        1.0130195E-17
  -11.75000        1.0115841E-17
  -11.58850        1.0134689E-17
  -11.42700        1.0185366E-17
  -11.26550        1.0247400E-17
  -11.10400        1.0293618E-17
  -10.94250        1.0306521E-17
  -10.78100        1.0288623E-17
  -10.61950        1.0260439E-17
  -10.45800        1.0247544E-17
  -10.29650        1.0264670E-17
  -10.13500        1.0306704E-17
  -9.973500        1.0352006E-17
  -9.812000        1.0375917E-17
  -9.650500        1.0366093E-17
  -9.489000        1.0330200E-17
  -9.327500        1.0291330E-17
  -9.166000        1.0274027E-17
  -9.004500        1.0289589E-17
  -8.843000        1.0329601E-17
  -8.681500        1.0371555E-17
  -8.520000        1.0392939E-17
  -8.358500        1.0385011E-17
  -8.197000        1.0357845E-17
  -8.035500        1.0333680E-17
  -7.874000        1.0332882E-17
  -7.712500        1.0361286E-17
  -7.551000        1.0406690E-17
  -7.389500        1.0446529E-17
  -7.228000        1.0461823E-17
  -7.066500        1.0448720E-17
  -6.905000        1.0420605E-17
  -6.743500        1.0399644E-17
  -6.582000        1.0403146E-17
  -6.420500        1.0433217E-17
  -6.259000        1.0475955E-17
  -6.097500        1.0510440E-17
  -5.936000        1.0521767E-17
  -5.774500        1.0510020E-17
  -5.613000        1.0489753E-17
  -5.451500        1.0480566E-17
  -5.290000        1.0494775E-17
  -5.128500        1.0529866E-17
  -4.967000        1.0570287E-17
  -4.805500        1.0597254E-17
  -4.644000        1.0600357E-17
  -4.482500        1.0583770E-17
  -4.321000        1.0563350E-17
  -4.159500        1.0556619E-17
  -3.998000        1.0571985E-17
  -3.836500        1.0603856E-17
  -3.675000        1.0636515E-17
  -3.513500        1.0654167E-17
  -3.352000        1.0650753E-17
  -3.190500        1.0633466E-17
  -3.029000        1.0617905E-17
  -2.867500        1.0618106E-17
  -2.706000        1.0637753E-17
  -2.544500        1.0668064E-17
  -2.383000        1.0693554E-17
  -2.221500        1.0701878E-17
  -2.060000        1.0691546E-17
  -1.898500        1.0672658E-17
  -1.737000        1.0660355E-17
  -1.575500        1.0665219E-17
  -1.414000        1.0686739E-17
  -1.252500        1.0713886E-17
  -1.091000        1.0732324E-17
 -0.9295000        1.0733582E-17
 -0.7680000        1.0720349E-17
 -0.6065000        1.0704623E-17
 -0.4450000        1.0699991E-17
 -0.2835000        1.0713034E-17
 -0.1220000        1.0739331E-17
  3.9500002E-02    1.0766481E-17
  0.2010000        1.0782163E-17
  0.3625000        1.0781995E-17
  0.5240000        1.0772239E-17
  0.6855000        1.0765658E-17
  0.8470000        1.0773247E-17
   1.008500        1.0797131E-17
   1.170000        1.0829118E-17
   1.331500        1.0855778E-17
   1.493000        1.0866808E-17
   1.654500        1.0861356E-17
   1.816000        1.0848350E-17
   1.977500        1.0840694E-17
   2.139000        1.0847049E-17
   2.300500        1.0866422E-17
   2.462000        1.0888990E-17
   2.623500        1.0902558E-17
   2.785000        1.0900566E-17
   2.946500        1.0886519E-17
   3.108000        1.0872019E-17
   3.269500        1.0869659E-17
   3.431000        1.0885209E-17
   3.592500        1.0914051E-17
   3.754000        1.0944080E-17
   3.915500        1.0963223E-17
   4.077000        1.0966849E-17
   4.238500        1.0960422E-17
   4.400000        1.0955760E-17
   4.561500        1.0963310E-17
   4.723000        1.0985359E-17
   4.884500        1.1014465E-17
   5.046000        1.1038066E-17
   5.207500        1.1046352E-17
   5.369000        1.1038408E-17
   5.530500        1.1022773E-17
   5.692000        1.1012093E-17
   5.853500        1.1015265E-17
   6.015000        1.1032015E-17
   6.176500        1.1053289E-17
   6.338000        1.1067128E-17
   6.499500        1.1066271E-17
   6.661000        1.1052700E-17
   6.822500        1.1036317E-17
   6.984000        1.1028687E-17
   7.145500        1.1035857E-17
   7.307000        1.1054741E-17
   7.468500        1.1075302E-17
   7.630000        1.1087033E-17
   7.791500        1.1085607E-17
   7.953000        1.1075487E-17
   8.114500        1.1066955E-17
   8.276000        1.1069542E-17
   8.437500        1.1086023E-17
   8.599000        1.1110788E-17
   8.760500        1.1133490E-17
   8.922000        1.1145599E-17
   9.083500        1.1145686E-17
   9.245000        1.1140093E-17
   9.406500        1.1138715E-17
   9.568000        1.1148606E-17
   9.729500        1.1169546E-17
   9.891000        1.1194319E-17
   10.05250        1.1213452E-17
   10.21400        1.1221293E-17
   10.37550        1.1219524E-17
   10.53700        1.1215900E-17
   10.69850        1.1219085E-17
   10.86000        1.1232959E-17
   11.02150        1.1254082E-17
   11.18300        1.1273935E-17
   11.34450        1.1284433E-17
   11.50600        1.1283131E-17
   11.66750        1.1274739E-17
   11.82900        1.1268045E-17
   11.99050        1.1270227E-17
   12.15200        1.1282299E-17
   12.31350        1.1298609E-17
   12.47500        1.1310701E-17
   12.63650        1.1312989E-17
   12.79800        1.1306530E-17
   12.95950        1.1298388E-17
   13.12100        1.1297055E-17
   13.28250        1.1306869E-17
   13.44400        1.1325103E-17
   13.60550        1.1343620E-17
   13.76700        1.1354066E-17
   13.92850        1.1353246E-17
   14.09000        1.1345213E-17
   14.25150        1.1338663E-17
   14.41300        1.1341325E-17
   14.57450        1.1354965E-17
   14.73600        1.1374237E-17
   14.89750        1.1390165E-17
   15.05900        1.1396007E-17
   15.22050        1.1391749E-17
   15.38200        1.1384262E-17
   15.54350        1.1382979E-17
   15.70500        1.1393818E-17
   15.86650        1.1415253E-17
   16.02800        1.1439097E-17
   16.18950        1.1455605E-17
   16.35100        1.1459620E-17
   16.51250        1.1453881E-17
   16.67400        1.1447285E-17
   16.83550        1.1449198E-17
   16.99700        1.1463358E-17
   17.15850        1.1485321E-17
   17.32000        1.1505143E-17
   17.48150        1.1513657E-17
   17.64300        1.1508398E-17
   17.80450        1.1495333E-17
   17.96600        1.1485245E-17
   18.12750        1.1486964E-17
   18.28900        1.1501765E-17
   18.45050        1.1522519E-17
   18.61200        1.1538225E-17
   18.77350        1.1541095E-17
   18.93500        1.1531708E-17
   19.09650        1.1518875E-17
   19.25800        1.1514224E-17
   19.41950        1.1524870E-17
   19.58100        1.1548837E-17
   19.74250        1.1576179E-17
   19.90400        1.1595161E-17
   20.06550        1.1599607E-17
   20.22700        1.1592781E-17
   20.38850        1.1585272E-17
   20.55000        1.1588209E-17
   20.71150        1.1606034E-17
   20.87300        1.1633442E-17
   21.03450        1.1658514E-17
   21.19600        1.1670090E-17
   21.35750        1.1664818E-17
   21.51900        1.1649377E-17
   21.68050        1.1636437E-17
   21.84200        1.1636820E-17
   22.00350        1.1652735E-17
   22.16500        1.1676375E-17
   22.32650        1.1694819E-17
   22.48800        1.1698230E-17
   22.64950        1.1686207E-17
   22.81100        1.1668237E-17
   22.97250        1.1657871E-17
   23.13400        1.1664203E-17
   23.29550        1.1686046E-17
   23.45700        1.1712526E-17
   23.61850        1.1729820E-17
   23.78000        1.1729889E-17
   23.94150        1.1715663E-17
   24.10300        1.1699343E-17
   24.26450        1.1694789E-17
   24.42600        1.1708736E-17
   24.58750        1.1736429E-17
   24.74900        1.1764484E-17
   24.91050        1.1779245E-17
   25.07200        1.1775394E-17
   25.23350        1.1759361E-17
   25.39500        1.1745339E-17
   25.55650        1.1746356E-17
   25.71800        1.1765987E-17
   25.87950        1.1795969E-17
   26.04100        1.1821288E-17
   26.20250        1.1829584E-17
   26.36400        1.1819003E-17
   26.52550        1.1799528E-17
   26.68700        1.1786865E-17
   26.84850        1.1792673E-17
   27.01000        1.1817206E-17
   27.17150        1.1849017E-17
   27.33300        1.1872017E-17
   27.49450        1.1875547E-17
   27.65600        1.1861166E-17
   27.81750        1.1841837E-17
   27.97900        1.1833907E-17
   28.14050        1.1846830E-17
   28.30200        1.1877094E-17
   28.46350        1.1910205E-17
   28.62500        1.1929629E-17
   28.78650        1.1927145E-17
   28.94800        1.1908127E-17
   29.10950        1.1888326E-17
   29.27100        1.1884077E-17
   29.43250        1.1901995E-17
   29.59400        1.1934655E-17
   29.75550        1.1965043E-17
   29.91700        1.1977091E-17
   30.07850        1.1965765E-17
   30.24000        1.1940353E-17
   30.40150        1.1918840E-17
   30.56300        1.1916778E-17
   30.72450        1.1937558E-17
   30.88600        1.1970194E-17
   31.04750        1.1996121E-17
   31.20900        1.2000815E-17
   31.37050        1.1983009E-17
   31.53200        1.1955696E-17
   31.69350        1.1938166E-17
   31.85500        1.1943988E-17
   32.01650        1.1972415E-17
   32.17800        1.2008656E-17
   32.33950        1.2032953E-17
   32.50100        1.2032884E-17
   32.66250        1.2011184E-17
   32.82400        1.1984146E-17
   32.98550        1.1971520E-17
   33.14700        1.1984176E-17
   33.30850        1.2017268E-17
   33.47000        1.2053203E-17
   33.63150        1.2072623E-17
   33.79300        1.2066577E-17
   33.95450        1.2042247E-17
   34.11600        1.2018633E-17
   34.27750        1.2014807E-17
   34.43900        1.2038017E-17
   34.60050        1.2079082E-17
   34.76200        1.2117994E-17
   34.92350        1.2136279E-17
   35.08500        1.2128499E-17
   35.24650        1.2105693E-17
   35.40800        1.2088577E-17
   35.56950        1.2094622E-17
   35.73100        1.2127024E-17
   35.89250        1.2172477E-17
   36.05400        1.2209224E-17
   36.21550        1.2220490E-17
   36.37700        1.2204951E-17
   36.53850        1.2177634E-17
   36.70000        1.2160592E-17
   36.86150        1.2169078E-17
   37.02300        1.2201845E-17
   37.18450        1.2241725E-17
   37.34600        1.2266235E-17
   37.50750        1.2261660E-17
   37.66900        1.2231789E-17
   37.83050        1.2195786E-17
   37.99200        1.2176396E-17
   38.15350        1.2185844E-17
   38.31500        1.2218217E-17
   38.47650        1.2253151E-17
   38.63800        1.2268576E-17
   38.79950        1.2254562E-17
   38.96100        1.2219655E-17
   39.12250        1.2185668E-17
   39.28400        1.2174157E-17
   39.44550        1.2192984E-17
   39.60700        1.2231348E-17
   39.76850        1.2266434E-17
   39.93000        1.2277564E-17
   40.09150        1.2259090E-17
   40.25300        1.2223988E-17
   40.41450        1.2195906E-17
   40.57600        1.2194533E-17
   40.73750        1.2223379E-17
   40.89900        1.2267548E-17
   41.06050        1.2302932E-17
   41.22200        1.2311138E-17
   41.38350        1.2290910E-17
   41.54500        1.2258939E-17
   41.70650        1.2239491E-17
   41.86800        1.2249308E-17
   42.02950        1.2287091E-17
   42.19100        1.2334164E-17
   42.35250        1.2365944E-17
   42.51400        1.2367165E-17
   42.67550        1.2341396E-17
   42.83700        1.2308914E-17
   42.99850        1.2294192E-17
   43.16000        1.2310714E-17
   43.32150        1.2352549E-17
   43.48300        1.2397957E-17
   43.64450        1.2422848E-17
   43.80600        1.2415790E-17
   43.96750        1.2385182E-17
   44.12900        1.2354102E-17
   44.29050        1.2345956E-17
   44.45200        1.2369857E-17
   44.61350        1.2414836E-17
   44.77500        1.2456573E-17
   44.93650        1.2472484E-17
   45.09800        1.2455797E-17
   45.25950        1.2419845E-17
   45.42100        1.2389852E-17
   45.58250        1.2387301E-17
   45.74400        1.2416595E-17
   45.90550        1.2462307E-17
   46.06700        1.2498745E-17
   46.22850        1.2505855E-17
   46.39000        1.2481638E-17
   46.55150        1.2443387E-17
   46.71300        1.2416999E-17
   46.87450        1.2420966E-17
   47.03600        1.2454956E-17
   47.19750        1.2500017E-17
   47.35900        1.2530267E-17
   47.52050        1.2528878E-17
   47.68200        1.2498504E-17
   47.84350        1.2459742E-17
   48.00500        1.2438534E-17
   48.16650        1.2450222E-17
   48.32800        1.2490029E-17
   48.48950        1.2535873E-17
   48.65100        1.2561845E-17
   48.81250        1.2554129E-17
   48.97400        1.2519570E-17
   49.13550        1.2481536E-17
   49.29700        1.2465554E-17
   49.45850        1.2483515E-17
   49.62000        1.2526200E-17
   49.78150        1.2568857E-17
   49.94300        1.2586488E-17
   50.10450        1.2569418E-17
   50.26600        1.2529476E-17
   50.42750        1.2492848E-17
   50.58900        1.2483955E-17
   50.75050        1.2510328E-17
   50.91200        1.2557928E-17
   51.07350        1.2599819E-17
   51.23500        1.2612845E-17
   51.39650        1.2591949E-17
   51.55800        1.2553275E-17
   51.71950        1.2524096E-17
   51.88100        1.2525859E-17
   52.04250        1.2560879E-17
   52.20400        1.2610900E-17
   52.36550        1.2648387E-17
   52.52700        1.2653517E-17
   52.68850        1.2626374E-17
   52.85000        1.2586866E-17
   53.01150        1.2562426E-17
   53.17300        1.2571099E-17
   53.33450        1.2610393E-17
   53.49600        1.2658777E-17
   53.65750        1.2688937E-17
   53.81900        1.2684655E-17
   53.98050        1.2650919E-17
   54.14200        1.2610982E-17
   54.30350        1.2592105E-17
   54.46500        1.2608729E-17
   54.62650        1.2653469E-17
   54.78800        1.2701607E-17
   54.94950        1.2726434E-17
   55.11100        1.2715962E-17
   55.27250        1.2680564E-17
   55.43400        1.2646632E-17
   55.59550        1.2640100E-17
   55.75700        1.2670078E-17
   55.91850        1.2722944E-17
   56.08000        1.2770640E-17
   56.24150        1.2788116E-17
   56.40300        1.2768978E-17
   56.56450        1.2729491E-17
   56.72600        1.2698365E-17
   56.88750        1.2698701E-17
   57.04900        1.2733431E-17
   57.21050        1.2783457E-17
   57.37200        1.2819619E-17
   57.53350        1.2820995E-17
   57.69500        1.2788045E-17
   57.85650        1.2742391E-17
   58.01800        1.2713369E-17
   58.17950        1.2719741E-17
   58.34100        1.2757978E-17
   58.50250        1.2804433E-17
   58.66400        1.2830091E-17
   58.82550        1.2818723E-17
   58.98700        1.2777119E-17
   59.14850        1.2731004E-17
   59.31000        1.2709129E-17
   59.47150        1.2725397E-17
   59.63300        1.2770159E-17
   59.79450        1.2816167E-17
   59.95600        1.2835600E-17
   60.11750        1.2817561E-17
   60.27900        1.2775052E-17
   60.44050        1.2736934E-17
   60.60200        1.2729833E-17
   60.76350        1.2761299E-17
   60.92500        1.2814878E-17
   61.08650        1.2860275E-17
   61.24800        1.2872285E-17
   61.40950        1.2846633E-17
   61.57100        1.2802695E-17
   61.73250        1.2771311E-17
   61.89400        1.2775365E-17
   62.05550        1.2815386E-17
   62.21700        1.2869259E-17
   62.37850        1.2906205E-17
   62.54000        1.2906167E-17
   62.70150        1.2872367E-17
   62.86300        1.2829216E-17
   63.02450        1.2806898E-17
   63.18600        1.2822400E-17
   63.34750        1.2868894E-17
   63.50900        1.2920095E-17
   63.67050        1.2946827E-17
   63.83200        1.2935292E-17
   63.99350        1.2895634E-17
   64.15500        1.2855475E-17
   64.31650        1.2842570E-17
   64.47800        1.2867450E-17
   64.63950        1.2916933E-17
   64.80100        1.2962484E-17
   64.96250        1.2978196E-17
   65.12400        1.2957033E-17
   65.28550        1.2915170E-17
   65.44700        1.2881692E-17
   65.60850        1.2880222E-17
   65.77000        1.2914064E-17
   65.93150        1.2964217E-17
   66.09300        1.3001433E-17
   66.25450        1.3004713E-17
   66.41600        1.2974525E-17
   66.57750        1.2932433E-17
   66.73900        1.2907401E-17
   66.90050        1.2917514E-17
   67.06200        1.2958711E-17
   67.22350        1.3007571E-17
   67.38500        1.3036256E-17
   67.54650        1.3030058E-17
   67.70800        1.2996457E-17
   67.86950        1.2960108E-17
   68.03100        1.2947042E-17
   68.19250        1.2968193E-17
   68.35400        1.3012640E-17
   68.51550        1.3054705E-17
   68.67700        1.3070247E-17
   68.83850        1.3051800E-17
   69.00000        1.3013033E-17
   69.16150        1.2979930E-17
   69.32300        1.2974378E-17
   69.48450        1.3000574E-17
   69.64600        1.3042678E-17
   69.80750        1.3075082E-17
   69.96900        1.3078678E-17
   70.13050        1.3052833E-17
   70.29200        1.3015609E-17
   70.45350        1.2992233E-17
   70.61500        1.2999193E-17
   70.77650        1.3034026E-17
   70.93800        1.3077103E-17
   71.09950        1.3104189E-17
   71.26100        1.3101734E-17
   71.42250        1.3075256E-17
   71.58400        1.3045597E-17
   71.74550        1.3035508E-17
   71.90700        1.3055201E-17
   72.06850        1.3095972E-17
   72.23000        1.3135850E-17
   72.39150        1.3153504E-17
   72.55300        1.3141543E-17
   72.71450        1.3110846E-17
   72.87600        1.3083333E-17
   73.03750        1.3077952E-17
   73.19900        1.3098809E-17
   73.36050        1.3132888E-17
   73.52200        1.3158622E-17
   73.68350        1.3159677E-17
   73.84500        1.3135196E-17
   74.00650        1.3100150E-17
   74.16800        1.3075787E-17
   74.32950        1.3076334E-17
   74.49100        1.3100349E-17
   74.65250        1.3131953E-17
   74.81400        1.3151057E-17
   74.97550        1.3145979E-17
   75.13700        1.3120578E-17
   75.29850        1.3091557E-17
   75.46000        1.3077797E-17
   75.62150        1.3088549E-17
   75.78300        1.3117816E-17
   75.94450        1.3148358E-17
   76.10600        1.3162649E-17
   76.26750        1.3153873E-17
   76.42900        1.3130077E-17
   76.59050        1.3108947E-17
   76.75200        1.3106622E-17
   76.91350        1.3127604E-17
   77.07500        1.3162092E-17
   77.23650        1.3192293E-17
   77.39800        1.3203629E-17
   77.55950        1.3193768E-17
   77.72100        1.3173873E-17
   77.88250        1.3161390E-17
   78.04400        1.3169015E-17
   78.20550        1.3196793E-17
   78.36700        1.3232251E-17
   78.52850        1.3258354E-17
   78.69000        1.3264176E-17
   78.85150        1.3251594E-17
   79.01300        1.3233886E-17
   79.17450        1.3227265E-17
   79.33600        1.3240699E-17
   79.49750        1.3270379E-17
   79.65900        1.3302202E-17
   79.82050        1.3320625E-17
   79.98200        1.3318286E-17
   80.14350        1.3300412E-17
   80.30500        1.3281363E-17
   80.46650        1.3275565E-17
   80.62800        1.3288559E-17
   80.78950        1.3313704E-17
   80.95100        1.3336496E-17
   81.11250        1.3343733E-17
   81.27400        1.3331762E-17
   81.43550        1.3308682E-17
   81.59700        1.3289220E-17
   81.75850        1.3285537E-17
   81.92000        1.3299760E-17
   82.08150        1.3322832E-17
   82.24300        1.3340316E-17
   82.40450        1.3341452E-17
   82.56600        1.3325810E-17
   82.72750        1.3303460E-17
   82.88900        1.3288633E-17
   83.05050        1.3290888E-17
   83.21200        1.3309278E-17
   83.37350        1.3333064E-17
   83.53500        1.3348491E-17
   83.69650        1.3347329E-17
   83.85800        1.3331899E-17
   84.01950        1.3313510E-17
   84.18100        1.3305314E-17
   84.34250        1.3314034E-17
   84.50400        1.3335712E-17
   84.66550        1.3358117E-17
   84.82700        1.3368355E-17
   84.98850        1.3360924E-17
   85.15000        1.3341178E-17
   85.31150        1.3322013E-17
   85.47300        1.3315800E-17
   85.63450        1.3326641E-17
   85.79600        1.3347819E-17
   85.95750        1.3366135E-17
   86.11900        1.3370373E-17
   86.28050        1.3358552E-17
   86.44200        1.3339298E-17
   86.60350        1.3326414E-17
   86.76500        1.3330090E-17
   86.92650        1.3350368E-17
   87.08800        1.3377052E-17
   87.24950        1.3396155E-17
   87.41100        1.3398750E-17
   87.57250        1.3386597E-17
   87.73400        1.3370962E-17
   87.89550        1.3365391E-17
   88.05700        1.3377056E-17
   88.21850        1.3402164E-17
   88.38000        1.3428328E-17
   88.54150        1.3442384E-17
   88.70300        1.3438721E-17
   88.86450        1.3422878E-17
   89.02600        1.3408140E-17
   89.18750        1.3407229E-17
   89.34900        1.3424264E-17
   89.51050        1.3452033E-17
   89.67200        1.3476356E-17
   89.83350        1.3484900E-17
   89.99500        1.3475020E-17
   90.15650        1.3455663E-17
   90.31800        1.3442012E-17
   90.47950        1.3446026E-17
   90.64100        1.3468757E-17
   90.80250        1.3499342E-17
   90.96400        1.3521558E-17
   91.12550        1.3523975E-17
   91.28700        1.3507389E-17
   91.44850        1.3484640E-17
   91.61000        1.3472706E-17
   91.77150        1.3481883E-17
   91.93300        1.3508931E-17
   92.09450        1.3538764E-17
   92.25600        1.3553837E-17
   92.41750        1.3545431E-17
   92.57900        1.3519536E-17
   92.74050        1.3493428E-17
   92.90200        1.3484864E-17
   93.06350        1.3500733E-17
   93.22500        1.3532451E-17
   93.38650        1.3561213E-17
   93.54800        1.3569847E-17
   93.70950        1.3553795E-17
   93.87100        1.3524163E-17
   94.03250        1.3500823E-17
   94.19400        1.3499841E-17
   94.35550        1.3523225E-17
   94.51700        1.3557493E-17
   94.67850        1.3582036E-17
   94.84000        1.3582056E-17
   95.00150        1.3557970E-17
   95.16300        1.3525367E-17
   95.32450        1.3505458E-17
   95.48600        1.3511919E-17
   95.64750        1.3542265E-17
   95.80900        1.3579207E-17
   95.97050        1.3601270E-17
   96.13200        1.3596198E-17
   96.29350        1.3568777E-17
   96.45500        1.3538114E-17
   96.61650        1.3525832E-17
   96.77800        1.3542402E-17
   96.93950        1.3580207E-17
   97.10100        1.3617896E-17
   97.26250        1.3633664E-17
   97.42400        1.3619186E-17
   97.58550        1.3585331E-17
   97.74700        1.3555711E-17
   97.90850        1.3551858E-17
   98.07000        1.3579334E-17
   98.23150        1.3623767E-17
   98.39300        1.3659643E-17
   98.55450        1.3666476E-17
   98.71600        1.3642086E-17
   98.87750        1.3604288E-17
   99.03900        1.3579744E-17
   99.20050        1.3586889E-17
   99.36200        1.3623930E-17
   99.52350        1.3669701E-17
   99.68500        1.3696998E-17
   99.84650        1.3689944E-17
   100.0080        1.3654294E-17
   100.1695        1.3614042E-17
   100.3310        1.3596369E-17
   100.4925        1.3614380E-17
   100.6540        1.3658624E-17
   100.8155        1.3702794E-17
   100.9770        1.3720158E-17
   101.1385        1.3700450E-17
   101.3000        1.3656551E-17
   101.4615        1.3616647E-17
   101.6230        1.3606660E-17
   101.7845        1.3633863E-17
   101.9460        1.3682033E-17
   102.1075        1.3721392E-17
   102.2690        1.3727309E-17
   102.4305        1.3696077E-17
   102.5920        1.3647727E-17
   102.7535        1.3613783E-17
   102.9150        1.3617443E-17
   103.0765        1.3658639E-17
   103.2380        1.3713573E-17
   103.3995        1.3749340E-17
   103.5610        1.3744658E-17
   103.7225        1.3703562E-17
   103.8840        1.3653250E-17
   104.0455        1.3627109E-17
   104.2070        1.3643552E-17
   104.3685        1.3694068E-17
   104.5300        1.3748291E-17
   104.6915        1.3773106E-17
   104.8530        1.3753741E-17
   105.0145        1.3703490E-17
   105.1760        1.3655644E-17
   105.3375        1.3642618E-17
   105.4990        1.3675322E-17
   105.6605        1.3735954E-17
   105.8220        1.3788879E-17
   105.9835        1.3802978E-17
   106.1450        1.3771375E-17
   106.3065        1.3716064E-17
   106.4680        1.3674324E-17
   106.6295        1.3675339E-17
   106.7910        1.3721712E-17
   106.9525        1.3787572E-17
   107.1140        1.3834681E-17
   107.2755        1.3836506E-17
   107.4370        1.3795142E-17
   107.5985        1.3740253E-17
   107.7600        1.3710532E-17
   107.9215        1.3729212E-17
   108.0830        1.3789117E-17
   108.2445        1.3856752E-17
   108.4060        1.3893119E-17
   108.5675        1.3878191E-17
   108.7290        1.3823703E-17
   108.8905        1.3765999E-17
   109.0520        1.3743368E-17
   109.2135        1.3771924E-17
   109.3750        1.3835311E-17
   109.5365        1.3894765E-17
   109.6980        1.3913381E-17
   109.8595        1.3879411E-17
   110.0210        1.3813914E-17
   110.1825        1.3757812E-17
   110.3440        1.3746322E-17
   110.5055        1.3786717E-17
   110.6670        1.3853474E-17
   110.8285        1.3904064E-17
   110.9900        1.3905644E-17
   111.1515        1.3855965E-17
   111.3130        1.3785163E-17
   111.4745        1.3737126E-17
   111.6360        1.3741953E-17
   111.7975        1.3796867E-17
   111.9590        1.3867714E-17
   112.1205        1.3910342E-17
   112.2820        1.3898477E-17
   112.4435        1.3840457E-17
   112.6050        1.3774138E-17
   112.7665        1.3743034E-17
   112.9280        1.3768731E-17
   113.0895        1.3837076E-17
   113.2510        1.3906910E-17
   113.4125        1.3935927E-17
   113.5740        1.3907343E-17
   113.7355        1.3840538E-17
   113.8970        1.3778953E-17
   114.0585        1.3762830E-17
   114.2200        1.3803918E-17
   114.3815        1.3878033E-17
   114.5430        1.3940147E-17
   114.7045        1.3952578E-17
   114.8660        1.3908620E-17
   115.0275        1.3836853E-17
   115.1890        1.3783367E-17
   115.3505        1.3782923E-17
   115.5120        1.3837046E-17
   115.6735        1.3912840E-17
   115.8350        1.3963449E-17
   115.9965        1.3957497E-17
   116.1580        1.3899106E-17
   116.3195        1.3825717E-17
   116.4810        1.3784858E-17
   116.6425        1.3804232E-17
   116.8040        1.3873998E-17
   116.9655        1.3952601E-17
   117.1270        1.3992764E-17
   117.2885        1.3971363E-17
   117.4500        1.3904259E-17
   117.6115        1.3836450E-17
   117.7730        1.3813672E-17
   117.9345        1.3853324E-17
   118.0960        1.3933265E-17
   118.2575        1.4005660E-17
   118.4190        1.4027201E-17
   118.5805        1.3986549E-17
   118.7420        1.3911615E-17