  -27.90000       -8.7294148E-19
  -27.73850       -8.7412404E-19
  -27.57700       -8.7602677E-19
  -27.41550       -8.7798253E-19
  -27.25400       -8.7945129E-19
  -27.09250       -8.8027765E-19
  -26.93100       -8.8074676E-19
  -26.76950       -8.8139713E-19
  -26.60800       -8.8269084E-19
  -26.44650       -8.8472281E-19
  -26.28500       -8.8713425E-19
  -26.12350       -8.8929288E-19
  -25.96200       -8.9064160E-19
  -25.80050       -8.9102159E-19
  -25.63900       -8.9077343E-19
  -25.47750       -8.9055619E-19
  -25.31600       -8.9098416E-19
  -25.15450       -8.9228469E-19
  -24.99300       -8.9418390E-19
  -24.83150       -8.9607845E-19
  -24.67000       -8.9739139E-19
  -24.50850       -8.9790042E-19
  -24.34700       -8.9784996E-19
  -24.18550       -8.9778896E-19
  -24.02400       -8.9824370E-19
  -23.86250       -8.9942140E-19
  -23.70100       -9.0110761E-19
  -23.53950       -9.0280798E-19
  -23.37800       -9.0403903E-19
  -23.21650       -9.0459955E-19
  -23.05500       -9.0466696E-19
  -22.89350       -9.0468082E-19
  -22.73200       -9.0507942E-19
  -22.57050       -9.0605704E-19
  -22.40900       -9.0746552E-19
  -22.24750       -9.0891278E-19
  -22.08600       -9.0998935E-19
  -21.92450       -9.1049972E-19
  -21.76300       -9.1056238E-19
  -21.60150       -9.1053126E-19
  -21.44000       -9.1078479E-19
  -21.27850       -9.1150568E-19
  -21.11700       -9.1258350E-19
  -20.95550       -9.1369843E-19
  -20.79400       -9.1453068E-19
  -20.63250       -9.1496671E-19
  -20.47100       -9.1517257E-19
  -20.30950       -9.1549010E-19
  -20.14800       -9.1621389E-19
  -19.98650       -9.1739055E-19
  -19.82500       -9.1876522E-19
  -19.66350       -9.1991904E-19
  -19.50200       -9.2052877E-19
  -19.34050       -9.2057468E-19
  -19.17900       -9.2037481E-19
  -19.01750       -9.2040573E-19
  -18.85600       -9.2101960E-19
  -18.69450       -9.2222749E-19
  -18.53300       -9.2368715E-19
  -18.37150       -9.2490632E-19
  -18.21000       -9.2554583E-19
  -18.04850       -9.2564116E-19
  -17.88700       -9.2560549E-19
  -17.72550       -9.2599706E-19
  -17.56400       -9.2718117E-19
  -17.40250       -9.2908316E-19
  -17.24100       -9.3118865E-19
  -17.07950       -9.3279555E-19
  -16.91800       -9.3338471E-19
  -16.75650       -9.3289853E-19
  -16.59500       -9.3177243E-19
  -16.43350       -9.3069834E-19
  -16.27200       -9.3024649E-19
  -16.11050       -9.3054738E-19
  -15.94900       -9.3122546E-19
  -15.78750       -9.3162468E-19
  -15.62600       -9.3120364E-19
  -15.46450       -9.2988367E-19
  -15.30300       -9.2814545E-19
  -15.14150       -9.2681338E-19
  -14.98000       -9.2664505E-19
  -14.81850       -9.2794455E-19
  -14.65700       -9.3041741E-19
  -14.49550       -9.3333611E-19
  -14.33400       -9.3593842E-19
  -14.17250       -9.3783029E-19
  -14.01100       -9.3916939E-19
  -13.84950       -9.4052710E-19
  -13.68800       -9.4251337E-19
  -13.52650       -9.4538296E-19
  -13.36500       -9.4884658E-19
  -13.20350       -9.5219076E-19
  -13.04200       -9.5463395E-19
  -12.88050       -9.5572024E-19
  -12.71900       -9.5553506E-19
  -12.55750       -9.5462557E-19
  -12.39600       -9.5367493E-19
  -12.23450       -9.5311948E-19
  -12.07300       -9.5293306E-19
  -11.91150       -9.5268883E-19
  -11.75000       -9.5186175E-19
  -11.58850       -9.5018196E-19
  -11.42700       -9.4782883E-19
  -11.26550       -9.4536218E-19
  -11.10400       -9.4341831E-19
  -10.94250       -9.4236107E-19
  -10.78100       -9.4209823E-19
  -10.61950       -9.4217216E-19
  -10.45800       -9.4208220E-19
  -10.29650       -9.4163697E-19
  -10.13500       -9.4110261E-19
  -9.973500       -9.4105123E-19
  -9.812000       -9.4198956E-19
  -9.650500       -9.4400685E-19
  -9.489000       -9.4666778E-19
  -9.327500       -9.4923711E-19
  -9.166000       -9.5111212E-19
  -9.004500       -9.5219459E-19
  -8.843000       -9.5295797E-19
  -8.681500       -9.5414456E-19
  -8.520000       -9.5626390E-19
  -8.358500       -9.5921487E-19
  -8.197000       -9.6227761E-19
  -8.035500       -9.6451255E-19
  -7.874000       -9.6532980E-19
  -7.712500       -9.6487744E-19
  -7.551000       -9.6400704E-19
  -7.389500       -9.6380831E-19
  -7.228000       -9.6497887E-19
  -7.066500       -9.6739620E-19
  -6.905000       -9.7015413E-19
  -6.743500       -9.7204610E-19
  -6.582000       -9.7223314E-19
  -6.420500       -9.7070637E-19
  -6.259000       -9.6828801E-19
  -6.097500       -9.6617291E-19
  -5.936000       -9.6526973E-19
  -5.774500       -9.6570276E-19
  -5.613000       -9.6674935E-19
  -5.451500       -9.6724711E-19
  -5.290000       -9.6625790E-19
  -5.128500       -9.6363057E-19
  -4.967000       -9.6015631E-19
  -4.805500       -9.5721103E-19
  -4.644000       -9.5606600E-19
  -4.482500       -9.5721278E-19
  -4.321000       -9.6007948E-19
  -4.159500       -9.6329825E-19
  -3.998000       -9.6540973E-19
  -3.836500       -9.6563472E-19
  -3.675000       -9.6429107E-19
  -3.513500       -9.6261407E-19
  -3.352000       -9.6205117E-19
  -3.190500       -9.6342574E-19
  -3.029000       -9.6643957E-19
  -2.867500       -9.6981705E-19
  -2.706000       -9.7201952E-19
  -2.544500       -9.7212354E-19
  -2.383000       -9.7035679E-19
  -2.221500       -9.6798268E-19
  -2.060000       -9.6659560E-19
  -1.898500       -9.6723563E-19
  -1.737000       -9.6983205E-19
  -1.575500       -9.7328387E-19
  -1.414000       -9.7611200E-19
  -1.252500       -9.7729818E-19
  -1.091000       -9.7682648E-19
 -0.9295000       -9.7565271E-19
 -0.7680000       -9.7513624E-19
 -0.6065000       -9.7629098E-19
 -0.4450000       -9.7926056E-19
 -0.2835000       -9.8328510E-19
 -0.1220000       -9.8712881E-19
  3.9500002E-02   -9.8972315E-19
  0.2010000       -9.9066903E-19
  0.3625000       -9.9036494E-19
  0.5240000       -9.8972564E-19
  0.6855000       -9.8966091E-19
  0.8470000       -9.9059107E-19
   1.008500       -9.9223520E-19
   1.170000       -9.9376941E-19
   1.331500       -9.9426407E-19
   1.493000       -9.9317860E-19
   1.654500       -9.9066738E-19
   1.816000       -9.8753340E-19
   1.977500       -9.8484744E-19
   2.139000       -9.8342583E-19
   2.300500       -9.8342728E-19
   2.462000       -9.8429437E-19
   2.623500       -9.8506892E-19
   2.785000       -9.8491723E-19
   2.946500       -9.8357503E-19
   3.108000       -9.8147265E-19
   3.269500       -9.7948349E-19
   3.431000       -9.7844186E-19
   3.592500       -9.7870428E-19
   3.754000       -9.7998879E-19
   3.915500       -9.8156157E-19
   4.077000       -9.8265148E-19
   4.238500       -9.8285228E-19
   4.400000       -9.8230014E-19
   4.561500       -9.8156033E-19
   4.723000       -9.8131062E-19
   4.884500       -9.8200897E-19
   5.046000       -9.8369590E-19
   5.207500       -9.8600270E-19
   5.369000       -9.8833225E-19
   5.530500       -9.9012051E-19
   5.692000       -9.9107353E-19
   5.853500       -9.9128973E-19
   6.015000       -9.9121952E-19
   6.176500       -9.9147502E-19
   6.338000       -9.9255035E-19
   6.499500       -9.9456475E-19
   6.661000       -9.9715144E-19
   6.822500       -9.9957519E-19
   6.984000       -1.0010608E-18
   7.145500       -1.0011867E-18
   7.307000       -1.0001309E-18
   7.468500       -9.9861018E-19
   7.630000       -9.9751158E-19
   7.791500       -9.9741769E-19
   7.953000       -9.9828582E-19
   8.114500       -9.9948420E-19
   8.276000       -1.0001722E-18
   8.437500       -9.9981714E-19
   8.599000       -9.9854369E-19
   8.760500       -9.9710336E-19
   8.922000       -9.9647088E-19
   9.083500       -9.9729351E-19
   9.245000       -9.9951656E-19
   9.406500       -1.0023963E-18
   9.568000       -1.0048838E-18
   9.729500       -1.0061495E-18
   9.891000       -1.0059624E-18
   10.05250       -1.0047369E-18
   10.21400       -1.0032502E-18
   10.37550       -1.0022037E-18
   10.53700       -1.0018717E-18
   10.69850       -1.0020153E-18
   10.86000       -1.0020851E-18
   11.02150       -1.0015861E-18
   11.18300       -1.0003943E-18
   11.34450       -9.9886381E-19
   11.50600       -9.9767143E-19
   11.66750       -9.9748407E-19
   11.82900       -9.9861379E-19
   11.99050       -1.0008406E-18
   12.15200       -1.0035090E-18
   12.31350       -1.0058644E-18
   12.47500       -1.0074613E-18
   12.63650       -1.0084013E-18
   12.79800       -1.0092573E-18
   12.95950       -1.0107130E-18
   13.12100       -1.0131162E-18
   13.28250       -1.0162237E-18
   13.44400       -1.0192985E-18
   13.60550       -1.0215191E-18
   13.76700       -1.0224632E-18
   13.92850       -1.0223529E-18
   14.09000       -1.0218859E-18
   14.25150       -1.0217469E-18
   14.41300       -1.0221087E-18
   14.57450       -1.0224651E-18
   14.73600       -1.0219235E-18
   14.89750       -1.0197903E-18
   15.05900       -1.0160733E-18
   15.22050       -1.0115837E-18
   15.38200       -1.0075463E-18
   15.54350       -1.0049503E-18
   15.70500       -1.0040274E-18
   15.86650       -1.0041838E-18
   16.02800       -1.0044199E-18
   16.18950       -1.0039834E-18
   16.35100       -1.0028493E-18
   16.51250       -1.0017429E-18
   16.67400       -1.0017041E-18
   16.83550       -1.0034544E-18
   16.99700       -1.0069394E-18
   17.15850       -1.0113017E-18
   17.32000       -1.0152961E-18
   17.48150       -1.0179194E-18
   17.64300       -1.0189213E-18
   17.80450       -1.0189173E-18
   17.96600       -1.0190430E-18
   18.12750       -1.0203175E-18
   18.28900       -1.0230576E-18
   18.45050       -1.0266495E-18
   18.61200       -1.0298249E-18
   18.77350       -1.0313208E-18
   18.93500       -1.0305892E-18
   19.09650       -1.0281574E-18
   19.25800       -1.0254035E-18
   19.41950       -1.0238224E-18
   19.58100       -1.0241772E-18
   19.74250       -1.0260253E-18
   19.90400       -1.0279447E-18
   20.06550       -1.0283580E-18
   20.22700       -1.0265062E-18
   20.38850       -1.0229722E-18
   20.55000       -1.0194256E-18
   20.71150       -1.0176889E-18
   20.87300       -1.0186804E-18
   21.03450       -1.0218637E-18
   21.19600       -1.0255604E-18
   21.35750       -1.0279492E-18
   21.51900       -1.0281481E-18
   21.68050       -1.0267284E-18
   21.84200       -1.0253398E-18
   22.00350       -1.0256843E-18
   22.16500       -1.0284604E-18
   22.32650       -1.0329087E-18
   22.48800       -1.0372251E-18
   22.64950       -1.0395824E-18
   22.81100       -1.0391526E-18
   22.97250       -1.0365389E-18
   23.13400       -1.0333741E-18
   23.29550       -1.0313524E-18
   23.45700       -1.0312557E-18
   23.61850       -1.0325363E-18
   23.78000       -1.0336796E-18
   23.94150       -1.0331319E-18
   24.10300       -1.0302590E-18
   24.26450       -1.0257937E-18
   24.42600       -1.0215127E-18
   24.58750       -1.0193014E-18
   24.74900       -1.0201254E-18
   24.91050       -1.0234800E-18
   25.07200       -1.0276529E-18
   25.23350       -1.0306745E-18
   25.39500       -1.0314408E-18
   25.55650       -1.0303636E-18
   25.71800       -1.0291500E-18
   25.87950       -1.0297946E-18
   26.04100       -1.0333524E-18
   26.20250       -1.0392251E-18
   26.36400       -1.0454167E-18
   26.52550       -1.0496580E-18
   26.68700       -1.0507514E-18
   26.84850       -1.0493186E-18
   27.01000       -1.0474675E-18
   27.17150       -1.0475212E-18
   27.33300       -1.0505538E-18
   27.49450       -1.0556234E-18
   27.65600       -1.0601993E-18
   27.81750       -1.0615795E-18
   27.97900       -1.0584690E-18
   28.14050       -1.0517782E-18
   28.30200       -1.0441512E-18
   28.46350       -1.0384849E-18
   28.62500       -1.0363157E-18
   28.78650       -1.0370221E-18
   28.94800       -1.0383156E-18
   29.10950       -1.0377234E-18
   29.27100       -1.0341766E-18
   29.43250       -1.0287571E-18
   29.59400       -1.0241406E-18
   29.75550       -1.0230563E-18
   29.91700       -1.0266624E-18
   30.07850       -1.0337848E-18
   30.24000       -1.0414751E-18
   30.40150       -1.0465882E-18
   30.56300       -1.0474866E-18
   30.72450       -1.0449117E-18
   30.88600       -1.0415161E-18
   31.04750       -1.0403173E-18
   31.20900       -1.0429471E-18
   31.37050       -1.0486952E-18
   31.53200       -1.0549121E-18
   31.69350       -1.0585453E-18
   31.85500       -1.0579374E-18
   32.01650       -1.0538435E-18
   32.17800       -1.0490542E-18
   32.33950       -1.0468043E-18
   32.50100       -1.0488617E-18
   32.66250       -1.0544117E-18
   32.82400       -1.0604210E-18
   32.98550       -1.0633336E-18
   33.14700       -1.0611349E-18
   33.30850       -1.0545921E-18
   33.47000       -1.0469137E-18
   33.63150       -1.0419802E-18
   33.79300       -1.0421620E-18
   33.95450       -1.0469894E-18
   34.11600       -1.0534732E-18
   34.27750       -1.0579085E-18
   34.43900       -1.0581066E-18
   34.60050       -1.0547144E-18
   34.76200       -1.0508193E-18
   34.92350       -1.0500466E-18
   35.08500       -1.0542854E-18
   35.24650       -1.0624100E-18
   35.40800       -1.0707899E-18
   35.56950       -1.0753169E-18
   35.73100       -1.0737705E-18
   35.89250       -1.0671249E-18
   36.05400       -1.0590223E-18
   36.21550       -1.0537030E-18
   36.37700       -1.0535976E-18
   36.53850       -1.0579878E-18
   36.70000       -1.0635101E-18
   36.86150       -1.0662028E-18
   37.02300       -1.0638868E-18
   37.18450       -1.0574871E-18
   37.34600       -1.0505191E-18
   37.50750       -1.0470278E-18
   37.66900       -1.0491752E-18
   37.83050       -1.0558928E-18
   37.99200       -1.0634127E-18
   38.15350       -1.0674163E-18
   38.31500       -1.0655795E-18
   38.47650       -1.0590269E-18
   38.63800       -1.0518090E-18
   38.79950       -1.0486428E-18
   38.96100       -1.0521875E-18
   39.12250       -1.0614346E-18
   39.28400       -1.0721936E-18
   39.44550       -1.0794450E-18
   39.60700       -1.0802261E-18
   39.76850       -1.0753443E-18
   39.93000       -1.0688765E-18
   40.09150       -1.0656855E-18
   40.25300       -1.0684202E-18
   40.41450       -1.0757801E-18
   40.57600       -1.0831525E-18
   40.73750       -1.0852880E-18
   40.89900       -1.0794732E-18
   41.06050       -1.0672962E-18
   41.22200       -1.0539162E-18
   41.38350       -1.0452166E-18
   41.54500       -1.0444796E-18
   41.70650       -1.0505467E-18
   41.86800       -1.0585598E-18
   42.02950       -1.0628627E-18
   42.19100       -1.0603659E-18
   42.35250       -1.0523974E-18
   42.51400       -1.0439392E-18
   42.67550       -1.0406902E-18
   42.83700       -1.0456611E-18
   42.99850       -1.0573058E-18
   43.16000       -1.0703002E-18
   43.32150       -1.0785604E-18
   43.48300       -1.0787717E-18
   43.64450       -1.0723668E-18
   43.80600       -1.0647657E-18
   43.96750       -1.0622555E-18
   44.12900       -1.0682811E-18
   44.29050       -1.0813032E-18
   44.45200       -1.0955241E-18
   44.61350       -1.1041339E-18
   44.77500       -1.1032355E-18
   44.93650       -1.0941507E-18
   45.09800       -1.0826968E-18
   45.25950       -1.0757885E-18
   45.42100       -1.0773279E-18
   45.58250       -1.0858346E-18
   45.74400       -1.0952852E-18
   45.90550       -1.0987272E-18
   46.06700       -1.0925504E-18
   46.22850       -1.0788395E-18
   46.39000       -1.0643404E-18
   46.55150       -1.0565860E-18
   46.71300       -1.0594591E-18
   46.87450       -1.0708439E-18
   47.03600       -1.0837959E-18
   47.19750       -1.0905694E-18
   47.35900       -1.0871333E-18
   47.52050       -1.0755087E-18
   47.68200       -1.0625471E-18
   47.84350       -1.0558798E-18
   48.00500       -1.0594151E-18
   48.16650       -1.0710330E-18
   48.32800       -1.0838178E-18
   48.48950       -1.0901105E-18
   48.65100       -1.0860235E-18
   48.81250       -1.0737865E-18
   48.97400       -1.0605380E-18
   49.13550       -1.0542266E-18
   49.29700       -1.0589677E-18
   49.45850       -1.0725433E-18
   49.62000       -1.0875509E-18
   49.78150       -1.0956072E-18
   49.94300       -1.0922265E-18
   50.10450       -1.0795315E-18
   50.26600       -1.0651468E-18
   50.42750       -1.0578339E-18
   50.58900       -1.0623595E-18
   50.75050       -1.0766309E-18
   50.91200       -1.0928502E-18
   51.07350       -1.1020926E-18
   51.23500       -1.0996323E-18
   51.39650       -1.0878265E-18
   51.55800       -1.0747692E-18
   51.71950       -1.0694595E-18
   51.88100       -1.0763480E-18
   52.04250       -1.0925466E-18
   52.20400       -1.1094119E-18
   52.36550       -1.1175891E-18
   52.52700       -1.1125167E-18
   52.68850       -1.0971161E-18
   52.85000       -1.0800747E-18
   53.01150       -1.0707633E-18
   53.17300       -1.0738072E-18
   53.33450       -1.0865005E-18
   53.49600       -1.1005344E-18
   53.65750       -1.1069678E-18
   53.81900       -1.1014915E-18
   53.98050       -1.0869246E-18
   54.14200       -1.0715322E-18
   54.30350       -1.0641781E-18
   54.46500       -1.0691501E-18
   54.62650       -1.0836450E-18
   54.78800       -1.0993676E-18
   54.94950       -1.1073266E-18
   55.11100       -1.1030632E-18
   55.27250       -1.0892789E-18
   55.43400       -1.0743125E-18
   55.59550       -1.0673064E-18
   55.75700       -1.0728586E-18
   55.91850       -1.0882919E-18
   56.08000       -1.1051927E-18
   56.24150       -1.1143533E-18
   56.40300       -1.1112096E-18
   56.56450       -1.0985244E-18
   56.72600       -1.0846755E-18
   56.88750       -1.0785585E-18
   57.04900       -1.0841740E-18
   57.21050       -1.0981964E-18
   57.37200       -1.1120050E-18
   57.53350       -1.1169415E-18
   57.69500       -1.1095857E-18
   57.85650       -1.0938462E-18
   58.01800       -1.0786243E-18
   58.17950       -1.0725017E-18
   58.34100       -1.0786859E-18
   58.50250       -1.0932242E-18
   58.66400       -1.1074828E-18
   58.82550       -1.1133102E-18
   58.98700       -1.1077690E-18
   59.14850       -1.0946589E-18
   59.31000       -1.0820357E-18
   59.47150       -1.0773033E-18
   59.63300       -1.0828278E-18
   59.79450       -1.0946343E-18
   59.95600       -1.1048915E-18
   60.11750       -1.1066649E-18
   60.27900       -1.0981146E-18
   60.44050       -1.0836613E-18
   60.60200       -1.0714405E-18
   60.76350       -1.0685335E-18
   60.92500       -1.0767892E-18
   61.08650       -1.0917197E-18
   61.24800       -1.1051553E-18
   61.40950       -1.1100987E-18
   61.57100       -1.1048852E-18
   61.73250       -1.0941210E-18
   61.89400       -1.0857963E-18
   62.05550       -1.0863069E-18
   62.21700       -1.0964381E-18
   62.37850       -1.1107998E-18
   62.54000       -1.1211079E-18
   62.70150       -1.1213095E-18
   62.86300       -1.1113849E-18
   63.02450       -1.0974534E-18
   63.18600       -1.0881032E-18
   63.34750       -1.0891920E-18
   63.50900       -1.1003158E-18
   63.67050       -1.1150899E-18
   63.83200       -1.1250400E-18
   63.99350       -1.1246902E-18
   64.15500       -1.1147547E-18
   64.31650       -1.1015448E-18
   64.47800       -1.0930293E-18
   64.63950       -1.0939890E-18
   64.80100       -1.1031948E-18
   64.96250       -1.1142552E-18
   65.12400       -1.1195642E-18
   65.28550       -1.1149475E-18
   65.44700       -1.1022305E-18
   65.60850       -1.0882208E-18
   65.77000       -1.0807234E-18
   65.93150       -1.0839557E-18
   66.09300       -1.0960624E-18
   66.25450       -1.1101976E-18
   66.41600       -1.1185355E-18
   66.57750       -1.1168430E-18
   66.73900       -1.1069105E-18
   66.90050       -1.0953939E-18
   67.06200       -1.0897605E-18
   67.22350       -1.0937740E-18
   67.38500       -1.1052377E-18
   67.54650       -1.1173641E-18
   67.70800       -1.1229412E-18
   67.86950       -1.1187589E-18
   68.03100       -1.1075846E-18
   68.19250       -1.0964865E-18
   68.35400       -1.0925262E-18
   68.51550       -1.0984719E-18
   68.67700       -1.1111377E-18
   68.83850       -1.1233345E-18
   69.00000       -1.1282074E-18
   69.16150       -1.1232899E-18
   69.32300       -1.1118461E-18
   69.48450       -1.1007524E-18
   69.64600       -1.0962932E-18
   69.80750       -1.1004485E-18
   69.96900       -1.1098911E-18
   70.13050       -1.1182153E-18
   70.29200       -1.1199529E-18
   70.45350       -1.1139148E-18
   70.61500       -1.1038565E-18
   70.77650       -1.0961332E-18
   70.93800       -1.0958198E-18
   71.09950       -1.1036426E-18
   71.26100       -1.1155528E-18
   71.42250       -1.1251522E-18
   71.58400       -1.1274731E-18
   71.74550       -1.1218497E-18
   71.90700       -1.1121697E-18
   72.06850       -1.1044100E-18
   72.23000       -1.1029871E-18
   72.39150       -1.1081611E-18
   72.55300       -1.1160413E-18
   72.71450       -1.1211494E-18
   72.87600       -1.1199165E-18
   73.03750       -1.1129374E-18
   73.19900       -1.1046002E-18
   73.36050       -1.1003474E-18
   73.52200       -1.1032830E-18
   73.68350       -1.1122424E-18
   73.84500       -1.1225108E-18
   74.00650       -1.1287120E-18
   74.16800       -1.1280651E-18
   74.32950       -1.1219866E-18
   74.49100       -1.1150939E-18
   74.65250       -1.1122702E-18
   74.81400       -1.1156292E-18
   74.97550       -1.1232547E-18
   75.13700       -1.1304527E-18
   75.29850       -1.1327078E-18
   75.46000       -1.1285018E-18
   75.62150       -1.1202573E-18
   75.78300       -1.1128396E-18
   75.94450       -1.1105507E-18
   76.10600       -1.1144615E-18
   76.26750       -1.1217260E-18
   76.42900       -1.1272908E-18
   76.59050       -1.1269785E-18
   76.75200       -1.1200652E-18
   76.91350       -1.1097796E-18
   77.07500       -1.1014070E-18
   77.23650       -1.0991374E-18
   77.39800       -1.1035685E-18
   77.55950       -1.1113955E-18
   77.72100       -1.1174750E-18
   77.88250       -1.1180006E-18
   78.04400       -1.1128404E-18
   78.20550       -1.1056040E-18
   78.36700       -1.1013909E-18
   78.52850       -1.1036092E-18
   78.69000       -1.1118196E-18
   78.85150       -1.1219286E-18
   79.01300       -1.1286144E-18
   79.17450       -1.1285110E-18
   79.33600       -1.1222185E-18
   79.49750       -1.1139350E-18
   79.65900       -1.1089530E-18
   79.82050       -1.1105316E-18
   79.98200       -1.1180112E-18
   80.14350       -1.1272654E-18
   80.30500       -1.1331880E-18
   80.46650       -1.1327247E-18
   80.62800       -1.1266624E-18
   80.78950       -1.1191400E-18
   80.95100       -1.1151932E-18
   81.11250       -1.1177764E-18
   81.27400       -1.1260058E-18
   81.43550       -1.1356427E-18
   81.59700       -1.1415355E-18
   81.75850       -1.1406056E-18
   81.92000       -1.1336410E-18
   82.08150       -1.1248542E-18
   82.24300       -1.1194522E-18
   82.40450       -1.1206251E-18
   82.56600       -1.1277132E-18
   82.72750       -1.1366164E-18
   82.88900       -1.1422046E-18
   83.05050       -1.1413073E-18
   83.21200       -1.1345257E-18
   83.37350       -1.1258109E-18
   83.53500       -1.1200942E-18
   83.69650       -1.1203875E-18
   83.85800       -1.1260878E-18
   84.01950       -1.1334511E-18
   84.18100       -1.1379090E-18
   84.34250       -1.1368074E-18
   84.50400       -1.1309386E-18
   84.66550       -1.1240053E-18
   84.82700       -1.1203904E-18
   84.98850       -1.1225935E-18
   85.15000       -1.1298158E-18
   85.31150       -1.1384665E-18
   85.47300       -1.1442189E-18
   85.63450       -1.1443900E-18
   85.79600       -1.1392985E-18
   85.95750       -1.1319036E-18
   86.11900       -1.1260218E-18
   86.28050       -1.1241848E-18
   86.44200       -1.1263365E-18
   86.60350       -1.1300498E-18
   86.76500       -1.1320668E-18
   86.92650       -1.1302495E-18
   87.08800       -1.1248368E-18
   87.24950       -1.1183084E-18
   87.41100       -1.1139552E-18
   87.57250       -1.1139810E-18
   87.73400       -1.1182164E-18
   87.89550       -1.1241889E-18
   88.05700       -1.1285037E-18
   88.21850       -1.1287491E-18
   88.38000       -1.1248219E-18
   88.54150       -1.1189187E-18
   88.70300       -1.1142056E-18
   88.86450       -1.1129795E-18
   89.02600       -1.1154108E-18
   89.18750       -1.1196019E-18
   89.34900       -1.1228851E-18
   89.51050       -1.1235333E-18
   89.67200       -1.1218256E-18
   89.83350       -1.1198363E-18
   89.99500       -1.1201215E-18
   90.15650       -1.1241344E-18
   90.31800       -1.1313438E-18
   90.47950       -1.1395482E-18
   90.64100       -1.1461400E-18
   90.80250       -1.1495219E-18
   90.96400       -1.1498355E-18
   91.12550       -1.1486430E-18
   91.28700       -1.1478419E-18
   91.44850       -1.1485307E-18
   91.61000       -1.1504884E-18
   91.77150       -1.1525088E-18
   91.93300       -1.1532904E-18
   92.09450       -1.1522897E-18
   92.25600       -1.1500240E-18
   92.41750       -1.1476827E-18
   92.57900       -1.1463362E-18
   92.74050       -1.1462471E-18
   92.90200       -1.1467050E-18
   93.06350       -1.1464673E-18
   93.22500       -1.1445254E-18
   93.38650       -1.1407205E-18
   93.54800       -1.1358487E-18
   93.70950       -1.1312046E-18
   93.87100       -1.1278647E-18
   94.03250       -1.1261589E-18
   94.19400       -1.1256543E-18
   94.35550       -1.1256431E-18
   94.51700       -1.1257796E-18
   94.67850       -1.1263971E-18
   94.84000       -1.1282414E-18
   95.00150       -1.1317699E-18
   95.16300       -1.1365151E-18
   95.32450       -1.1410197E-18
   95.48600       -1.1435024E-18
   95.64750       -1.1429014E-18
   95.80900       -1.1396282E-18
   95.97050       -1.1354716E-18
   96.13200       -1.1326180E-18
   96.29350       -1.1323456E-18
   96.45500       -1.1342334E-18
   96.61650       -1.1364599E-18
   96.77800       -1.1370701E-18
   96.93950       -1.1354281E-18
   97.10100       -1.1328754E-18
   97.26250       -1.1320779E-18
   97.42400       -1.1353738E-18
   97.58550       -1.1431126E-18
   97.74700       -1.1530641E-18
   97.90850       -1.1613638E-18
   98.07000       -1.1645325E-18
   98.23150       -1.1614199E-18
   98.39300       -1.1538989E-18
   98.55450       -1.1458545E-18
   98.71600       -1.1410120E-18
   98.87750       -1.1408576E-18
   99.03900       -1.1438757E-18
   99.20050       -1.1465705E-18
   99.36200       -1.1456983E-18
   99.52350       -1.1404021E-18
   99.68500       -1.1329594E-18
   99.84650       -1.1276255E-18
   100.0080       -1.1281626E-18
   100.1695       -1.1354597E-18
   100.3310       -1.1466745E-18
   100.4925       -1.1565163E-18
   100.6540       -1.1600371E-18
   100.8155       -1.1553996E-18
   100.9770       -1.1449972E-18
   101.1385       -1.1342118E-18
   101.3000       -1.1284535E-18
   101.4615       -1.1301543E-18
   101.6230       -1.1374849E-18
   101.7845       -1.1455653E-18
   101.9460       -1.1494559E-18
   102.1075       -1.1471472E-18
   102.2690       -1.1407302E-18
   102.4305       -1.1350396E-18
   102.5920       -1.1346008E-18
   102.7535       -1.1407561E-18
   102.9150       -1.1507180E-18
   103.0765       -1.1591510E-18
   103.2380       -1.1613152E-18
   103.3995       -1.1558921E-18
   103.5610       -1.1458006E-18
   103.7225       -1.1365375E-18
   103.8840       -1.1330512E-18
   104.0455       -1.1369902E-18
   104.2070       -1.1459186E-18
   104.3685       -1.1548964E-18
   104.5300       -1.1594296E-18
   104.6915       -1.1580381E-18
   104.8530       -1.1529425E-18
   105.0145       -1.1485073E-18
   105.1760       -1.1484111E-18
   105.3375       -1.1532553E-18
   105.4990       -1.1600780E-18
   105.6605       -1.1640912E-18
   105.8220       -1.1616323E-18
   105.9835       -1.1525544E-18
   106.1450       -1.1405735E-18
   106.3065       -1.1312986E-18
   106.4680       -1.1290720E-18
   106.6295       -1.1345019E-18
   106.7910       -1.1441903E-18
   106.9525       -1.1528392E-18
   107.1140       -1.1564554E-18
   107.2755       -1.1546780E-18
   107.4370       -1.1507868E-18
   107.5985       -1.1493840E-18
   107.7600       -1.1532297E-18
   107.9215       -1.1612349E-18
   108.0830       -1.1689344E-18
   108.2445       -1.1711873E-18
   108.4060       -1.1654529E-18
   108.5675       -1.1535928E-18
   108.7290       -1.1410341E-18
   108.8905       -1.1337434E-18
   109.0520       -1.1348163E-18
   109.2135       -1.1427417E-18
   109.3750       -1.1523953E-18
   109.5365       -1.1581637E-18
   109.6980       -1.1573062E-18
   109.8595       -1.1515163E-18
   110.0210       -1.1457267E-18
   110.1825       -1.1448849E-18
   110.3440       -1.1506808E-18
   110.5055       -1.1602678E-18
   110.6670       -1.1678315E-18
   110.8285       -1.1681181E-18
   110.9900       -1.1597985E-18
   111.1515       -1.1465741E-18
   111.3130       -1.1352527E-18
   111.4745       -1.1318621E-18
   111.6360       -1.1380961E-18
   111.7975       -1.1502545E-18
   111.9590       -1.1613798E-18
   112.1205       -1.1653649E-18
   112.2820       -1.1605948E-18
   112.4435       -1.1508998E-18
   112.6050       -1.1432071E-18
   112.7665       -1.1432677E-18
   112.9280       -1.1520304E-18
   113.0895       -1.1648929E-18
   113.2510       -1.1743575E-18
   113.4125       -1.1745622E-18
   113.5740       -1.1649732E-18
   113.7355       -1.1509629E-18
   113.8970       -1.1408115E-18
   114.0585       -1.1408456E-18
   114.2200       -1.1515903E-18
   114.3815       -1.1672992E-18
   114.5430       -1.1792426E-18
   114.7045       -1.1808486E-18
   114.8660       -1.1716252E-18
   115.0275       -1.1574573E-18
   115.1890       -1.1470250E-18
   115.3505       -1.1464891E-18
   115.5120       -1.1556870E-18
   115.6735       -1.1682196E-18
   115.8350       -1.1754249E-18
   115.9965       -1.1718215E-18
   116.1580       -1.1586455E-18
   116.3195       -1.1432642E-18
   116.4810       -1.1347759E-18
   116.6425       -1.1384952E-18
   116.8040       -1.1526941E-18
   116.9655       -1.1695991E-18
   117.1270       -1.1800084E-18
   117.2885       -1.1787085E-18
   117.4500       -1.1674195E-18
   117.6115       -1.1535593E-18
   117.7730       -1.1456486E-18
   117.9345       -1.1481942E-18
   118.0960       -1.1591055E-18
   118.2575       -1.1711388E-18
   118.4190       -1.1764109E-18
   118.5805       -1.1712413E-18
   118.7420       -1.1584205E-18