  -27.90000        9.0861150E-18
  -27.73850        9.1055471E-18
  -27.57700        9.1368724E-18
  -27.41550        9.1693409E-18
  -27.25400        9.1944533E-18
  -27.09250        9.2100688E-18
  -26.93100        9.2209355E-18
  -26.76950        9.2354318E-18
  -26.60800        9.2603664E-18
  -26.44650        9.2967375E-18
  -26.28500        9.3388112E-18
  -26.12350        9.3770352E-18
  -25.96200        9.4031626E-18
  -25.80050        9.4147629E-18
  -25.63900        9.4166208E-18
  -25.47750        9.4182230E-18
  -25.31600        9.4287100E-18
  -25.15450        9.4520349E-18
  -24.99300        9.4849591E-18
  -24.83150        9.5189678E-18
  -24.67000        9.5450182E-18
  -24.50850        9.5585046E-18
  -24.34700        9.5617149E-18
  -24.18550        9.5624585E-18
  -24.02400        9.5696641E-18
  -23.86250        9.5884163E-18
  -23.70100        9.6171682E-18
  -23.53950        9.6486739E-18
  -23.37800        9.6740766E-18
  -23.21650        9.6878500E-18
  -23.05500        9.6908460E-18
  -22.89350        9.6897533E-18
  -22.73200        9.6933102E-18
  -22.57050        9.7073971E-18
  -22.40900        9.7317634E-18
  -22.24750        9.7601944E-18
  -22.08600        9.7840023E-18
  -21.92450        9.7968633E-18
  -21.76300        9.7983034E-18
  -21.60150        9.7939128E-18
  -21.44000        9.7922129E-18
  -21.27850        9.7999661E-18
  -21.11700        9.8185710E-18
  -20.95550        9.8435155E-18
  -20.79400        9.8671364E-18
  -20.63250        9.8830572E-18
  -20.47100        9.8897697E-18
  -20.30950        9.8913488E-18
  -20.14800        9.8949396E-18
  -19.98650        9.9065003E-18
  -19.82500        9.9272534E-18
  -19.66350        9.9528720E-18
  -19.50200        9.9758528E-18
  -19.34050        9.9897014E-18
  -19.17900        9.9925511E-18
  -19.01750        9.9881687E-18
  -18.85600        9.9838276E-18
  -18.69450        9.9862810E-18
  -18.53300        9.9981577E-18
  -18.37150        1.0016799E-17
  -18.21000        1.0036134E-17
  -18.04850        1.0050432E-17
  -17.88700        1.0057736E-17
  -17.72550        1.0060954E-17
  -17.56400        1.0066030E-17
  -17.40250        1.0078280E-17
  -17.24100        1.0099056E-17
  -17.07950        1.0124696E-17
  -16.91800        1.0148386E-17
  -16.75650        1.0163857E-17
  -16.59500        1.0168788E-17
  -16.43350        1.0165971E-17
  -16.27200        1.0161598E-17
  -16.11050        1.0161691E-17
  -15.94900        1.0168781E-17
  -15.78750        1.0180744E-17
  -15.62600        1.0192441E-17
  -15.46450        1.0199156E-17
  -15.30300        1.0199769E-17
  -15.14150        1.0197783E-17
  -14.98000        1.0199570E-17
  -14.81850        1.0210856E-17
  -14.65700        1.0233481E-17
  -14.49550        1.0264324E-17
  -14.33400        1.0297016E-17
  -14.17250        1.0325451E-17
  -14.01100        1.0347048E-17
  -13.84950        1.0363891E-17
  -13.68800        1.0381097E-17
  -13.52650        1.0403391E-17
  -13.36500        1.0431916E-17
  -13.20350        1.0463153E-17
  -13.04200        1.0490609E-17
  -12.88050        1.0508326E-17
  -12.71900        1.0514181E-17
  -12.55750        1.0511069E-17
  -12.39600        1.0505271E-17
  -12.23450        1.0502926E-17
  -12.07300        1.0506641E-17
  -11.91150        1.0514175E-17
  -11.75000        1.0519975E-17
  -11.58850        1.0518674E-17
  -11.42700        1.0508524E-17
  -11.26550        1.0492771E-17
  -11.10400        1.0478123E-17
  -10.94250        1.0471152E-17
  -10.78100        1.0474692E-17
  -10.61950        1.0486292E-17
  -10.45800        1.0499652E-17
  -10.29650        1.0508254E-17
  -10.13500        1.0509109E-17
  -9.973500        1.0504468E-17
  -9.812000        1.0500499E-17
  -9.650500        1.0503654E-17
  -9.489000        1.0516821E-17
  -9.327500        1.0537482E-17
  -9.166000        1.0558986E-17
  -9.004500        1.0574233E-17
  -8.843000        1.0579676E-17
  -8.681500        1.0577357E-17
  -8.520000        1.0573773E-17
  -8.358500        1.0576201E-17
  -8.197000        1.0588585E-17
  -8.035500        1.0609310E-17
  -7.874000        1.0632165E-17
  -7.712500        1.0649940E-17
  -7.551000        1.0658599E-17
  -7.389500        1.0659645E-17
  -7.228000        1.0659280E-17
  -7.066500        1.0664856E-17
  -6.905000        1.0680603E-17
  -6.743500        1.0705096E-17
  -6.582000        1.0731902E-17
  -6.420500        1.0753092E-17
  -6.259000        1.0763612E-17
  -6.097500        1.0764088E-17
  -5.936000        1.0760441E-17
  -5.774500        1.0760559E-17
  -5.613000        1.0769908E-17
  -5.451500        1.0788573E-17
  -5.290000        1.0811401E-17
  -5.128500        1.0831146E-17
  -4.967000        1.0842810E-17
  -4.805500        1.0846671E-17
  -4.644000        1.0848244E-17
  -4.482500        1.0855155E-17
  -4.321000        1.0872713E-17
  -4.159500        1.0900681E-17
  -3.998000        1.0933127E-17
  -3.836500        1.0961459E-17
  -3.675000        1.0978948E-17
  -3.513500        1.0984198E-17
  -3.352000        1.0981606E-17
  -3.190500        1.0978607E-17
  -3.029000        1.0981292E-17
  -2.867500        1.0990965E-17
  -2.706000        1.1003572E-17
  -2.544500        1.1012356E-17
  -2.383000        1.1012117E-17
  -2.221500        1.1002612E-17
  -2.060000        1.0989080E-17
  -1.898500        1.0979558E-17
  -1.737000        1.0980537E-17
  -1.575500        1.0993426E-17
  -1.414000        1.1013862E-17
  -1.252500        1.1034237E-17
  -1.091000        1.1047981E-17
 -0.9295000        1.1053129E-17
 -0.7680000        1.1053136E-17
 -0.6065000        1.1054555E-17
 -0.4450000        1.1062924E-17
 -0.2835000        1.1079330E-17
 -0.1220000        1.1099591E-17
  3.9500002E-02    1.1116560E-17
  0.2010000        1.1124153E-17
  0.3625000        1.1120779E-17
  0.5240000        1.1110174E-17
  0.6855000        1.1099168E-17
  0.8470000        1.1093706E-17
   1.008500        1.1095446E-17
   1.170000        1.1100913E-17
   1.331500        1.1103695E-17
   1.493000        1.1098399E-17
   1.654500        1.1084060E-17
   1.816000        1.1065007E-17
   1.977500        1.1048696E-17
   2.139000        1.1041727E-17
   2.300500        1.1046378E-17
   2.462000        1.1059616E-17
   2.623500        1.1075134E-17
   2.785000        1.1087195E-17
   2.946500        1.1093983E-17
   3.108000        1.1098505E-17
   3.269500        1.1106526E-17
   3.431000        1.1122764E-17
   3.592500        1.1147642E-17
   3.754000        1.1176537E-17
   3.915500        1.1202045E-17
   4.077000        1.1217969E-17
   4.238500        1.1222720E-17
   4.400000        1.1220162E-17
   4.561500        1.1217381E-17
   4.723000        1.1220704E-17
   4.884500        1.1232262E-17
   5.046000        1.1249080E-17
   5.207500        1.1265183E-17
   5.369000        1.1275421E-17
   5.530500        1.1278727E-17
   5.692000        1.1278834E-17
   5.853500        1.1282059E-17
   6.015000        1.1293438E-17
   6.176500        1.1313551E-17
   6.338000        1.1337922E-17
   6.499500        1.1359412E-17
   6.661000        1.1372205E-17
   6.822500        1.1375082E-17
   6.984000        1.1372076E-17
   7.145500        1.1370106E-17
   7.307000        1.1375001E-17
   7.468500        1.1388212E-17
   7.630000        1.1406130E-17
   7.791500        1.1422383E-17
   7.953000        1.1431726E-17
   8.114500        1.1433219E-17
   8.276000        1.1430814E-17
   8.437500        1.1430994E-17
   8.599000        1.1438852E-17
   8.760500        1.1454924E-17
   8.922000        1.1474654E-17
   9.083500        1.1490879E-17
   9.245000        1.1497877E-17
   9.406500        1.1494678E-17
   9.568000        1.1485650E-17
   9.729500        1.1478003E-17
   9.891000        1.1477631E-17
   10.05250        1.1485695E-17
   10.21400        1.1497957E-17
   10.37550        1.1507296E-17
   10.53700        1.1507954E-17
   10.69850        1.1499060E-17
   10.86000        1.1485330E-17
   11.02150        1.1474496E-17
   11.18300        1.1472917E-17
   11.34450        1.1481942E-17
   11.50600        1.1497169E-17
   11.66750        1.1511086E-17
   11.82900        1.1517591E-17
   11.99050        1.1515749E-17
   12.15200        1.1510552E-17
   12.31350        1.1510155E-17
   12.47500        1.1521154E-17
   12.63650        1.1544594E-17
   12.79800        1.1575095E-17
   12.95950        1.1603600E-17
   13.12100        1.1622257E-17
   13.28250        1.1628613E-17
   13.44400        1.1626728E-17
   13.60550        1.1624574E-17
   13.76700        1.1629207E-17
   13.92850        1.1642515E-17
   14.09000        1.1660019E-17
   14.25150        1.1673450E-17
   14.41300        1.1675651E-17
   14.57450        1.1664994E-17
   14.73600        1.1646741E-17
   14.89750        1.1630528E-17
   15.05900        1.1625303E-17
   15.22050        1.1634586E-17
   15.38200        1.1654696E-17
   15.54350        1.1676968E-17
   15.70500        1.1692712E-17
   15.86650        1.1698130E-17
   16.02800        1.1696386E-17
   16.18950        1.1695648E-17
   16.35100        1.1704218E-17
   16.51250        1.1725502E-17
   16.67400        1.1755726E-17
   16.83550        1.1785730E-17
   16.99700        1.1805872E-17
   17.15850        1.1811302E-17
   17.32000        1.1804618E-17
   17.48150        1.1794384E-17
   17.64300        1.1790319E-17
   17.80450        1.1797882E-17
   17.96600        1.1815294E-17
   18.12750        1.1834698E-17
   18.28900        1.1846777E-17
   18.45050        1.1846201E-17
   18.61200        1.1834799E-17
   18.77350        1.1820646E-17
   18.93500        1.1813577E-17
   19.09650        1.1819670E-17
   19.25800        1.1837827E-17
   19.41950        1.1860393E-17
   19.58100        1.1877442E-17
   19.74250        1.1882315E-17
   19.90400        1.1875266E-17
   20.06550        1.1863189E-17
   20.22700        1.1855616E-17
   20.38850        1.1859279E-17
   20.55000        1.1874329E-17
   20.71150        1.1894311E-17
   20.87300        1.1909899E-17
   21.03450        1.1914220E-17
   21.19600        1.1906764E-17
   21.35750        1.1893665E-17
   21.51900        1.1884249E-17
   21.68050        1.1885817E-17
   21.84200        1.1899624E-17
   22.00350        1.1920298E-17
   22.16500        1.1938952E-17
   22.32650        1.1948213E-17
   22.48800        1.1946300E-17
   22.64950        1.1937882E-17
   22.81100        1.1931289E-17
   22.97250        1.1933720E-17
   23.13400        1.1947166E-17
   23.29550        1.1967355E-17
   23.45700        1.1986218E-17
   23.61850        1.1996463E-17
   23.78000        1.1995636E-17
   23.94150        1.1987406E-17
   24.10300        1.1979426E-17
   24.26450        1.1979020E-17
   24.42600        1.1989183E-17
   24.58750        1.2007116E-17
   24.74900        1.2026040E-17
   24.91050        1.2039211E-17
   25.07200        1.2043793E-17
   25.23350        1.2042416E-17
   25.39500        1.2041599E-17
   25.55650        1.2047978E-17
   25.71800        1.2064522E-17
   25.87950        1.2088848E-17
   26.04100        1.2114541E-17
   26.20250        1.2134659E-17
   26.36400        1.2145388E-17
   26.52550        1.2147802E-17
   26.68700        1.2146816E-17
   26.84850        1.2148056E-17
   27.01000        1.2154501E-17
   27.17150        1.2164846E-17
   27.33300        1.2174445E-17
   27.49450        1.2178230E-17
   27.65600        1.2173826E-17
   27.81750        1.2163089E-17
   27.97900        1.2151208E-17
   28.14050        1.2143972E-17
   28.30200        1.2144810E-17
   28.46350        1.2153263E-17
   28.62500        1.2165677E-17
   28.78650        1.2177559E-17
   28.94800        1.2186182E-17
   29.10950        1.2191915E-17
   29.27100        1.2197618E-17
   29.43250        1.2206566E-17
   29.59400        1.2220219E-17
   29.75550        1.2237155E-17
   29.91700        1.2253758E-17
   30.07850        1.2266178E-17
   30.24000        1.2272381E-17
   30.40150        1.2273123E-17
   30.56300        1.2271318E-17
   30.72450        1.2270274E-17
   30.88600        1.2271830E-17
   31.04750        1.2275500E-17
   31.20900        1.2279049E-17
   31.37050        1.2280088E-17
   31.53200        1.2277695E-17
   31.69350        1.2273074E-17
   31.85500        1.2268893E-17
   32.01650        1.2267722E-17
   32.17800        1.2270542E-17
   32.33950        1.2276230E-17
   32.50100        1.2282329E-17
   32.66250        1.2286639E-17
   32.82400        1.2288629E-17
   32.98550        1.2289817E-17
   33.14700        1.2292832E-17
   33.30850        1.2299756E-17
   33.47000        1.2310740E-17
   33.63150        1.2323788E-17
   33.79300        1.2335843E-17
   33.95450        1.2344566E-17
   34.11600        1.2349690E-17
   34.27750        1.2353151E-17
   34.43900        1.2357871E-17
   34.60050        1.2365938E-17
   34.76200        1.2377309E-17
   34.92350        1.2389816E-17
   35.08500        1.2400499E-17
   35.24650        1.2407460E-17
   35.40800        1.2411075E-17
   35.56950        1.2413860E-17
   35.73100        1.2419023E-17
   35.89250        1.2428548E-17
   36.05400        1.2441940E-17
   36.21550        1.2456369E-17
   36.37700        1.2468130E-17
   36.53850        1.2474621E-17
   36.70000        1.2475708E-17
   36.86150        1.2473740E-17
   37.02300        1.2472212E-17
   37.18450        1.2473848E-17
   37.34600        1.2479152E-17
   37.50750        1.2486235E-17
   37.66900        1.2492018E-17
   37.83050        1.2494139E-17
   37.99200        1.2492504E-17
   38.15350        1.2489585E-17
   38.31500        1.2489234E-17
   38.47650        1.2494621E-17
   38.63800        1.2506431E-17
   38.79950        1.2522313E-17
   38.96100        1.2537983E-17
   39.12250        1.2549403E-17
   39.28400        1.2554862E-17
   39.44550        1.2555782E-17
   39.60700        1.2555767E-17
   39.76850        1.2558425E-17
   39.93000        1.2565195E-17
   40.09150        1.2574468E-17
   40.25300        1.2582509E-17
   40.41450        1.2585680E-17
   40.57600        1.2582664E-17
   40.73750        1.2575399E-17
   40.89900        1.2568192E-17
   41.06050        1.2565474E-17
   41.22200        1.2569490E-17
   41.38350        1.2579216E-17
   41.54500        1.2591079E-17
   41.70650        1.2601021E-17
   41.86800        1.2606752E-17
   42.02950        1.2608926E-17
   42.19100        1.2610655E-17
   42.35250        1.2615667E-17
   42.51400        1.2626125E-17
   42.67550        1.2641319E-17
   42.83700        1.2657884E-17
   42.99850        1.2671451E-17
   43.16000        1.2678820E-17
   43.32150        1.2679534E-17
   43.48300        1.2676006E-17
   43.64450        1.2672171E-17
   43.80600        1.2671366E-17
   43.96750        1.2674566E-17
   44.12900        1.2679970E-17
   44.29050        1.2684137E-17
   44.45200        1.2684102E-17
   44.61350        1.2679252E-17
   44.77500        1.2671926E-17
   44.93650        1.2666329E-17
   45.09800        1.2666367E-17
   45.25950        1.2673598E-17
   45.42100        1.2686460E-17
   45.58250        1.2701197E-17
   45.74400        1.2713952E-17
   45.90550        1.2722818E-17
   46.06700        1.2728692E-17
   46.22850        1.2734511E-17
   46.39000        1.2743350E-17
   46.55150        1.2756539E-17
   46.71300        1.2772843E-17
   46.87450        1.2789125E-17
   47.03600        1.2802041E-17
   47.19750        1.2809785E-17
   47.35900        1.2812928E-17
   47.52050        1.2813952E-17
   47.68200        1.2815838E-17
   47.84350        1.2820476E-17
   48.00500        1.2827790E-17
   48.16650        1.2835942E-17
   48.32800        1.2842465E-17
   48.48950        1.2845641E-17
   48.65100        1.2845406E-17
   48.81250        1.2843334E-17
   48.97400        1.2841729E-17
   49.13550        1.2842371E-17
   49.29700        1.2845571E-17
   49.45850        1.2850058E-17
   49.62000        1.2853731E-17
   49.78150        1.2854842E-17
   49.94300        1.2852952E-17
   50.10450        1.2849126E-17
   50.26600        1.2845300E-17
   50.42750        1.2843221E-17
   50.58900        1.2843570E-17
   50.75050        1.2845785E-17
   50.91200        1.2848625E-17
   51.07350        1.2851097E-17
   51.23500        1.2853139E-17
   51.39650        1.2855669E-17
   51.55800        1.2859985E-17
   51.71950        1.2866934E-17
   51.88100        1.2876373E-17
   52.04250        1.2887225E-17
   52.20400        1.2898050E-17
   52.36550        1.2907751E-17
   52.52700        1.2915962E-17
   52.68850        1.2922948E-17
   52.85000        1.2929136E-17
   53.01150        1.2934651E-17
   53.17300        1.2939171E-17
   53.33450        1.2942193E-17
   53.49600        1.2943489E-17
   53.65750        1.2943439E-17
   53.81900        1.2942994E-17
   53.98050        1.2943271E-17
   54.14200        1.2945037E-17
   54.30350        1.2948404E-17
   54.46500        1.2952900E-17
   54.62650        1.2957889E-17
   54.78800        1.2963062E-17
   54.94950        1.2968677E-17
   55.11100        1.2975385E-17
   55.27250        1.2983735E-17
   55.43400        1.2993661E-17
   55.59550        1.3004296E-17
   55.75700        1.3014268E-17
   55.91850        1.3022352E-17
   56.08000        1.3028115E-17
   56.24150        1.3032146E-17
   56.40300        1.3035706E-17
   56.56450        1.3039940E-17
   56.72600        1.3045125E-17
   56.88750        1.3050398E-17
   57.04900        1.3054196E-17
   57.21050        1.3055186E-17
   57.37200        1.3053171E-17
   57.53350        1.3049394E-17
   57.69500        1.3046046E-17
   57.85650        1.3045187E-17
   58.01800        1.3047706E-17
   58.17950        1.3052940E-17
   58.34100        1.3059192E-17
   58.50250        1.3064882E-17
   58.66400        1.3069623E-17
   58.82550        1.3074549E-17
   58.98700        1.3081650E-17
   59.14850        1.3092451E-17
   59.31000        1.3106828E-17
   59.47150        1.3122678E-17
   59.63300        1.3136723E-17
   59.79450        1.3146059E-17
   59.95600        1.3149564E-17
   60.11750        1.3148411E-17
   60.27900        1.3145329E-17
   60.44050        1.3143074E-17
   60.60200        1.3142942E-17
   60.76350        1.3144219E-17
   60.92500        1.3144829E-17
   61.08650        1.3142835E-17
   61.24800        1.3137868E-17
   61.40950        1.3131622E-17
   61.57100        1.3127100E-17
   61.73250        1.3126982E-17
   61.89400        1.3132060E-17
   62.05550        1.3140652E-17
   62.21700        1.3149372E-17
   62.37850        1.3154892E-17
   62.54000        1.3155724E-17
   62.70150        1.3153014E-17
   62.86300        1.3149890E-17
   63.02450        1.3149702E-17
   63.18600        1.3154150E-17
   63.34750        1.3162380E-17
   63.50900        1.3171568E-17
   63.67050        1.3178673E-17
   63.83200        1.3182307E-17
   63.99350        1.3183630E-17
   64.15500        1.3185691E-17
   64.31650        1.3191596E-17
   64.47800        1.3202585E-17
   64.63950        1.3217153E-17
   64.80100        1.3231782E-17
   64.96250        1.3242854E-17
   65.12400        1.3248658E-17
   65.28550        1.3250302E-17
   65.44700        1.3251014E-17
   65.60850        1.3254253E-17
   65.77000        1.3261717E-17
   65.93150        1.3272415E-17
   66.09300        1.3283290E-17
   66.25450        1.3291006E-17
   66.41600        1.3293834E-17
   66.57750        1.3292538E-17
   66.73900        1.3289807E-17
   66.90050        1.3288569E-17
   67.06200        1.3290245E-17
   67.22350        1.3293968E-17
   67.38500        1.3297222E-17
   67.54650        1.3297534E-17
   67.70800        1.3294202E-17
   67.86950        1.3289002E-17
   68.03100        1.3285431E-17
   68.19250        1.3286871E-17
   68.35400        1.3294750E-17
   68.51550        1.3307743E-17
   68.67700        1.3322500E-17
   68.83850        1.3335483E-17
   69.00000        1.3344794E-17
   69.16150        1.3350940E-17
   69.32300        1.3356095E-17
   69.48450        1.3362362E-17
   69.64600        1.3370145E-17
   69.80750        1.3377691E-17
   69.96900        1.3382090E-17
   70.13050        1.3381151E-17
   70.29200        1.3374952E-17
   70.45350        1.3366111E-17
   70.61500        1.3358537E-17
   70.77650        1.3355406E-17
   70.93800        1.3357557E-17
   71.09950        1.3363247E-17
   71.26100        1.3369393E-17
   71.42250        1.3373524E-17
   71.58400        1.3375250E-17
   71.74550        1.3376396E-17
   71.90700        1.3379706E-17
   72.06850        1.3386949E-17
   72.23000        1.3397590E-17
   72.39150        1.3408855E-17
   72.55300        1.3417207E-17
   72.71450        1.3420375E-17
   72.87600        1.3418734E-17
   73.03750        1.3415169E-17
   73.19900        1.3413455E-17
   73.36050        1.3416056E-17
   73.52200        1.3422642E-17
   73.68350        1.3430233E-17
   73.84500        1.3434944E-17
   74.00650        1.3434318E-17
   74.16800        1.3428865E-17
   74.32950        1.3421860E-17
   74.49100        1.3417459E-17
   74.65250        1.3418276E-17
   74.81400        1.3423854E-17
   74.97550        1.3431012E-17
   75.13700        1.3435849E-17
   75.29850        1.3436235E-17
   75.46000        1.3433230E-17
   75.62150        1.3430569E-17
   75.78300        1.3432487E-17
   75.94450        1.3441172E-17
   76.10600        1.3455399E-17
   76.26750        1.3471121E-17
   76.42900        1.3483710E-17
   76.59050        1.3490502E-17
   76.75200        1.3492198E-17
   76.91350        1.3492327E-17
   77.07500        1.3495118E-17
   77.23650        1.3503045E-17
   77.39800        1.3515450E-17
   77.55950        1.3529009E-17
   77.72100        1.3539744E-17
   77.88250        1.3545400E-17
   78.04400        1.3546797E-17
   78.20550        1.3547377E-17
   78.36700        1.3551176E-17
   78.52850        1.3560389E-17
   78.69000        1.3573935E-17
   78.85150        1.3587887E-17
   79.01300        1.3597570E-17
   79.17450        1.3600126E-17
   79.33600        1.3596092E-17
   79.49750        1.3589035E-17
   79.65900        1.3583463E-17
   79.82050        1.3582255E-17
   79.98200        1.3585135E-17
   80.14350        1.3589086E-17
   80.30500        1.3590466E-17
   80.46650        1.3587473E-17
   80.62800        1.3581478E-17
   80.78950        1.3576368E-17
   80.95100        1.3576318E-17
   81.11250        1.3583335E-17
   81.27400        1.3596069E-17
   81.43550        1.3610565E-17
   81.59700        1.3622492E-17
   81.75850        1.3629486E-17
   81.92000        1.3632245E-17
   82.08150        1.3633779E-17
   82.24300        1.3637343E-17
   82.40450        1.3644325E-17
   82.56600        1.3653347E-17
   82.72750        1.3661064E-17
   82.88900        1.3664143E-17
   83.05050        1.3661246E-17
   83.21200        1.3653863E-17
   83.37350        1.3645528E-17
   83.53500        1.3639896E-17
   83.69650        1.3638787E-17
   83.85800        1.3641318E-17
   84.01950        1.3644594E-17
   84.18100        1.3645555E-17
   84.34250        1.3642888E-17
   84.50400        1.3637892E-17
   84.66550        1.3633795E-17
   84.82700        1.3633897E-17
   84.98850        1.3639628E-17
   85.15000        1.3649685E-17
   85.31150        1.3660750E-17
   85.47300        1.3669418E-17
   85.63450        1.3674167E-17
   85.79600        1.3676193E-17
   85.95750        1.3678580E-17
   86.11900        1.3684311E-17
   86.28050        1.3694303E-17
   86.44200        1.3706683E-17
   86.60350        1.3717770E-17
   86.76500        1.3724175E-17
   86.92650        1.3724776E-17
   87.08800        1.3721355E-17
   87.24950        1.3717511E-17
   87.41100        1.3716515E-17
   87.57250        1.3719403E-17
   87.73400        1.3724454E-17
   87.89550        1.3728364E-17
   88.05700        1.3728363E-17
   88.21850        1.3724015E-17
   88.38000        1.3717613E-17
   88.54150        1.3712937E-17
   88.70300        1.3713123E-17
   88.86450        1.3718905E-17
   89.02600        1.3728248E-17
   89.18750        1.3737555E-17
   89.34900        1.3743743E-17
   89.51050        1.3745972E-17
   89.67200        1.3746041E-17
   89.83350        1.3747262E-17
   89.99500        1.3752463E-17
   90.15650        1.3762260E-17
   90.31800        1.3774608E-17
   90.47950        1.3785854E-17
   90.64100        1.3792758E-17
   90.80250        1.3794301E-17
   90.96400        1.3792290E-17
   91.12550        1.3790375E-17
   91.28700        1.3792037E-17
   91.44850        1.3798626E-17
   91.61000        1.3808599E-17
   91.77150        1.3818404E-17
   91.93300        1.3824523E-17
   92.09450        1.3825538E-17
   92.25600        1.3822993E-17
   92.41750        1.3820558E-17
   92.57900        1.3821925E-17
   92.74050        1.3828676E-17
   92.90200        1.3839348E-17
   93.06350        1.3850275E-17
   93.22500        1.3857710E-17
   93.38650        1.3859983E-17
   93.54800        1.3858446E-17
   93.70950        1.3856638E-17
   93.87100        1.3858194E-17
   94.03250        1.3864720E-17
   94.19400        1.3874884E-17
   94.35550        1.3885216E-17
   94.51700        1.3892103E-17
   94.67850        1.3893797E-17
   94.84000        1.3891307E-17
   95.00150        1.3887688E-17
   95.16300        1.3886228E-17
   95.32450        1.3888596E-17
   95.48600        1.3893964E-17
   95.64750        1.3899592E-17
   95.80900        1.3902433E-17
   95.97050        1.3900848E-17
   96.13200        1.3895496E-17
   96.29350        1.3888938E-17
   96.45500        1.3884238E-17
   96.61650        1.3883355E-17
   96.77800        1.3886180E-17
   96.93950        1.3890732E-17
   97.10100        1.3894346E-17
   97.26250        1.3895203E-17
   97.42400        1.3893337E-17
   97.58550        1.3890598E-17
   97.74700        1.3889595E-17
   97.90850        1.3892254E-17
   98.07000        1.3898767E-17
   98.23150        1.3907556E-17
   98.39300        1.3916237E-17
   98.55450        1.3923018E-17
   98.71600        1.3927708E-17
   98.87750        1.3931738E-17
   99.03900        1.3937222E-17
   99.20050        1.3945590E-17
   99.36200        1.3956645E-17
   99.52350        1.3968561E-17
   99.68500        1.3978821E-17
   99.84650        1.3985502E-17
   100.0080        1.3988152E-17
   100.1695        1.3987809E-17
   100.3310        1.3986175E-17
   100.4925        1.3984554E-17
   100.6540        1.3983189E-17
   100.8155        1.3981359E-17
   100.9770        1.3978112E-17
   101.1385        1.3973130E-17
   101.3000        1.3967155E-17
   101.4615        1.3961742E-17
   101.6230        1.3958531E-17
   101.7845        1.3958483E-17
   101.9460        1.3961545E-17
   102.1075        1.3966869E-17
   102.2690        1.3973398E-17
   102.4305        1.3980434E-17
   102.5920        1.3987831E-17
   102.7535        1.3995769E-17
   102.9150        1.4004295E-17
   103.0765        1.4012986E-17
   103.2380        1.4020943E-17
   103.3995        1.4027162E-17
   103.5610        1.4031021E-17
   103.7225        1.4032651E-17
   103.8840        1.4032916E-17
   104.0455        1.4033020E-17
   104.2070        1.4033925E-17
   104.3685        1.4035880E-17
   104.5300        1.4038347E-17
   104.6915        1.4040350E-17
   104.8530        1.4041103E-17
   105.0145        1.4040555E-17
   105.1760        1.4039543E-17
   105.3375        1.4039389E-17
   105.4990        1.4041166E-17
   105.6605        1.4045001E-17
   105.8220        1.4049909E-17
   105.9835        1.4054305E-17
   106.1450        1.4056944E-17
   106.3065        1.4057771E-17
   106.4680        1.4058077E-17
   106.6295        1.4059827E-17
   106.7910        1.4064459E-17
   106.9525        1.4071891E-17
   107.1140        1.4080359E-17
   107.2755        1.4087266E-17
   107.4370        1.4090592E-17
   107.5985        1.4090037E-17
   107.7600        1.4087223E-17
   107.9215        1.4084791E-17
   108.0830        1.4084942E-17
   108.2445        1.4088257E-17
   108.4060        1.4093473E-17
   108.5675        1.4098346E-17
   108.7290        1.4101067E-17
   108.8905        1.4101434E-17
   109.0520        1.4101064E-17
   109.2135        1.4102521E-17
   109.3750        1.4107842E-17
   109.5365        1.4117237E-17
   109.6980        1.4128749E-17
   109.8595        1.4139081E-17
   110.0210        1.4145200E-17
   110.1825        1.4145922E-17
   110.3440        1.4142550E-17
   110.5055        1.4138216E-17
   110.6670        1.4136197E-17
   110.8285        1.4138135E-17
   110.9900        1.4143182E-17
   111.1515        1.4148622E-17
   111.3130        1.4151641E-17
   111.4745        1.4151231E-17
   111.6360        1.4149047E-17
   111.7975        1.4148632E-17
   111.9590        1.4153383E-17
   112.1205        1.4164436E-17
   112.2820        1.4179717E-17
   112.4435        1.4194828E-17
   112.6050        1.4205236E-17
   112.7665        1.4208579E-17
   112.9280        1.4205724E-17
   113.0895        1.4200024E-17
   113.2510        1.4195253E-17
   113.4125        1.4193418E-17
   113.5740        1.4193729E-17
   113.7355        1.4193270E-17
   113.8970        1.4188938E-17
   114.0585        1.4179514E-17
   114.2200        1.4166644E-17
   114.3815        1.4154213E-17
   114.5430        1.4146401E-17
   114.7045        1.4145540E-17
   114.8660        1.4150933E-17
   115.0275        1.4159304E-17
   115.1890        1.4166629E-17
   115.3505        1.4170350E-17
   115.5120        1.4170684E-17
   115.6735        1.4170352E-17
   115.8350        1.4172805E-17
   115.9965        1.4180030E-17
   116.1580        1.4191197E-17
   116.3195        1.4202971E-17
   116.4810        1.4211319E-17
   116.6425        1.4213747E-17
   116.8040        1.4210654E-17
   116.9655        1.4205009E-17
   117.1270        1.4200603E-17
   117.2885        1.4199910E-17
   117.4500        1.4202855E-17
   117.6115        1.4207143E-17
   117.7730        1.4209863E-17
   117.9345        1.4209350E-17
   118.0960        1.4206200E-17
   118.2575        1.4202908E-17
   118.4190        1.4202443E-17
   118.5805        1.4206676E-17
   118.7420        1.4215534E-17