  -27.90000        6.2007589E-18
  -27.73850        6.2020997E-18
  -27.57700        6.2045267E-18
  -27.41550        6.2076505E-18
  -27.25400        6.2110850E-18
  -27.09250        6.2145682E-18
  -26.93100        6.2180043E-18
  -26.76950        6.2214136E-18
  -26.60800        6.2248302E-18
  -26.44650        6.2282386E-18
  -26.28500        6.2315651E-18
  -26.12350        6.2347213E-18
  -25.96200        6.2376520E-18
  -25.80050        6.2403684E-18
  -25.63900        6.2429488E-18
  -25.47750        6.2455015E-18
  -25.31600        6.2481071E-18
  -25.15450        6.2507706E-18
  -24.99300        6.2534184E-18
  -24.83150        6.2559459E-18
  -24.67000        6.2582732E-18
  -24.50850        6.2603796E-18
  -24.34700        6.2623090E-18
  -24.18550        6.2641503E-18
  -24.02400        6.2660056E-18
  -23.86250        6.2679445E-18
  -23.70100        6.2699695E-18
  -23.53950        6.2720126E-18
  -23.37800        6.2739838E-18
  -23.21650        6.2758280E-18
  -23.05500        6.2775518E-18
  -22.89350        6.2792087E-18
  -22.73200        6.2808651E-18
  -22.57050        6.2825650E-18
  -22.40900        6.2843070E-18
  -22.24750        6.2860557E-18
  -22.08600        6.2877754E-18
  -21.92450        6.2894769E-18
  -21.76300        6.2912301E-18
  -21.60150        6.2931119E-18
  -21.44000        6.2951249E-18
  -21.27850        6.2971531E-18
  -21.11700        6.2989986E-18
  -20.95550        6.3004834E-18
  -20.79400        6.3015583E-18
  -20.63250        6.3023668E-18
  -20.47100        6.3032209E-18
  -20.30950        6.3044939E-18
  -20.14800        6.3064597E-18
  -19.98650        6.3091667E-18
  -19.82500        6.3124187E-18
  -19.66350        6.3158768E-18
  -19.50200        6.3192128E-18
  -19.34050        6.3222241E-18
  -19.17900        6.3248595E-18
  -19.01750        6.3271670E-18
  -18.85600        6.3292006E-18
  -18.69450        6.3309451E-18
  -18.53300        6.3322971E-18
  -18.37150        6.3331243E-18
  -18.21000        6.3333816E-18
  -18.04850        6.3331971E-18
  -17.88700        6.3328712E-18
  -17.72550        6.3327810E-18
  -17.56400        6.3332492E-18
  -17.40250        6.3344304E-18
  -17.24100        6.3362602E-18
  -17.07950        6.3384828E-18
  -16.91800        6.3407584E-18
  -16.75650        6.3428081E-18
  -16.59500        6.3445224E-18
  -16.43350        6.3459721E-18
  -16.27200        6.3473266E-18
  -16.11050        6.3487353E-18
  -15.94900        6.3502350E-18
  -15.78750        6.3517222E-18
  -15.62600        6.3529969E-18
  -15.46450        6.3538642E-18
  -15.30300        6.3542398E-18
  -15.14150        6.3542042E-18
  -14.98000        6.3539639E-18
  -14.81850        6.3537422E-18
  -14.65700        6.3536909E-18
  -14.49550        6.3538555E-18
  -14.33400        6.3542129E-18
  -14.17250        6.3547290E-18
  -14.01100        6.3554057E-18
  -13.84950        6.3562957E-18
  -13.68800        6.3574687E-18
  -13.52650        6.3589547E-18
  -13.36500        6.3607079E-18
  -13.20350        6.3626327E-18
  -13.04200        6.3646606E-18
  -12.88050        6.3668220E-18
  -12.71900        6.3692556E-18
  -12.55750        6.3721495E-18
  -12.39600        6.3756571E-18
  -12.23450        6.3798327E-18
  -12.07300        6.3846010E-18
  -11.91150        6.3897792E-18
  -11.75000        6.3951343E-18
  -11.58850        6.4004477E-18
  -11.42700        6.4055407E-18
  -11.26550        6.4102457E-18
  -11.10400        6.4143654E-18
  -10.94250        6.4176742E-18
  -10.78100        6.4199688E-18
  -10.61950        6.4211545E-18
  -10.45800        6.4213055E-18
  -10.29650        6.4206909E-18
  -10.13500        6.4197305E-18
  -9.973500        6.4188905E-18
  -9.812000        6.4185253E-18
  -9.650500        6.4187512E-18
  -9.489000        6.4194117E-18
  -9.327500        6.4201565E-18
  -9.166000        6.4205933E-18
  -9.004500        6.4204365E-18
  -8.843000        6.4196003E-18
  -8.681500        6.4182031E-18
  -8.520000        6.4164867E-18
  -8.358500        6.4146732E-18
  -8.197000        6.4128500E-18
  -8.035500        6.4109612E-18
  -7.874000        6.4089061E-18
  -7.712500        6.4066677E-18
  -7.551000        6.4043884E-18
  -7.389500        6.4023449E-18
  -7.228000        6.4008406E-18
  -7.066500        6.4000713E-18
  -6.905000        6.4000246E-18
  -6.743500        6.4004721E-18
  -6.582000        6.4010743E-18
  -6.420500        6.4015503E-18
  -6.259000        6.4018084E-18
  -6.097500        6.4019610E-18
  -5.936000        6.4022319E-18
  -5.774500        6.4028358E-18
  -5.613000        6.4038896E-18
  -5.451500        6.4053835E-18
  -5.290000        6.4072182E-18
  -5.128500        6.4092820E-18
  -4.967000        6.4115390E-18
  -4.805500        6.4140610E-18
  -4.644000        6.4169855E-18
  -4.482500        6.4204328E-18
  -4.321000        6.4244384E-18
  -4.159500        6.4289325E-18
  -3.998000        6.4337484E-18
  -3.836500        6.4386353E-18
  -3.675000        6.4432907E-18
  -3.513500        6.4474101E-18
  -3.352000        6.4507486E-18
  -3.190500        6.4531606E-18
  -3.029000        6.4546264E-18
  -2.867500        6.4552641E-18
  -2.706000        6.4553349E-18
  -2.544500        6.4551959E-18
  -2.383000        6.4552054E-18
  -2.221500        6.4556190E-18
  -2.060000        6.4565339E-18
  -1.898500        6.4578958E-18
  -1.737000        6.4595539E-18
  -1.575500        6.4613303E-18
  -1.414000        6.4630913E-18
  -1.252500        6.4647962E-18
  -1.091000        6.4664795E-18
 -0.9295000        6.4681740E-18
 -0.7680000        6.4698283E-18
 -0.6065000        6.4713028E-18
 -0.4450000        6.4724525E-18
 -0.2835000        6.4732400E-18
 -0.1220000        6.4738124E-18
  3.9500002E-02    6.4744953E-18
  0.2010000        6.4756856E-18
  0.3625000        6.4776812E-18
  0.5240000        6.4805002E-18
  0.6855000        6.4838106E-18
  0.8470000        6.4870378E-18
   1.008500        6.4896070E-18
   1.170000        6.4911882E-18
   1.331500        6.4918106E-18
   1.493000        6.4918011E-18
   1.654500        6.4915910E-18
   1.816000        6.4914901E-18
   1.977500        6.4915356E-18
   2.139000        6.4915038E-18
   2.300500        6.4910802E-18
   2.462000        6.4900959E-18
   2.623500        6.4886702E-18
   2.785000        6.4871739E-18
   2.946500        6.4860361E-18
   3.108000        6.4855208E-18
   3.269500        6.4855902E-18
   3.431000        6.4859124E-18
   3.592500        6.4860183E-18
   3.754000        6.4855228E-18
   3.915500        6.4843056E-18
   4.077000        6.4825462E-18
   4.238500        6.4805858E-18
   4.400000        6.4787205E-18
   4.561500        6.4770479E-18
   4.723000        6.4754602E-18
   4.884500        6.4737645E-18
   5.046000        6.4718628E-18
   5.207500        6.4698858E-18
   5.369000        6.4682153E-18
   5.530500        6.4673546E-18
   5.692000        6.4677091E-18
   5.853500        6.4693841E-18
   6.015000        6.4721299E-18
   6.176500        6.4754523E-18
   6.338000        6.4788202E-18
   6.499500        6.4818621E-18
   6.661000        6.4844607E-18
   6.822500        6.4867239E-18
   6.984000        6.4888617E-18
   7.145500        6.4910443E-18
   7.307000        6.4933244E-18
   7.468500        6.4956785E-18
   7.630000        6.4981200E-18
   7.791500        6.5007918E-18
   7.953000        6.5039532E-18
   8.114500        6.5078613E-18
   8.276000        6.5126163E-18
   8.437500        6.5180587E-18
   8.599000        6.5237791E-18
   8.760500        6.5292484E-18
   8.922000        6.5340117E-18
   9.083500        6.5378474E-18
   9.245000        6.5408120E-18
   9.406500        6.5431343E-18
   9.568000        6.5450438E-18
   9.729500        6.5466449E-18
   9.891000        6.5478894E-18
   10.05250        6.5486574E-18
   10.21400        6.5488650E-18
   10.37550        6.5485428E-18
   10.53700        6.5478261E-18
   10.69850        6.5468670E-18
   10.86000        6.5457163E-18
   11.02150        6.5442651E-18
   11.18300        6.5422898E-18
   11.34450        6.5395936E-18
   11.50600        6.5361401E-18
   11.66750        6.5321121E-18
   11.82900        6.5278517E-18
   11.99050        6.5237340E-18
   12.15200        6.5200307E-18
   12.31350        6.5168345E-18
   12.47500        6.5140928E-18
   12.63650        6.5117263E-18
   12.79800        6.5097700E-18
   12.95950        6.5084357E-18
   13.12100        6.5080441E-18
   13.28250        6.5088692E-18
   13.44400        6.5109888E-18
   13.60550        6.5142198E-18
   13.76700        6.5181716E-18
   13.92850        6.5224010E-18
   14.09000        6.5265861E-18
   14.25150        6.5306277E-18
   14.41300        6.5346214E-18
   14.57450        6.5387052E-18
   14.73600        6.5428932E-18
   14.89750        6.5469981E-18
   15.05900        6.5507047E-18
   15.22050        6.5537375E-18
   15.38200        6.5560230E-18
   15.54350        6.5577489E-18
   15.70500        6.5592751E-18
   15.86650        6.5609249E-18
   16.02800        6.5627641E-18
   16.18950        6.5645029E-18
   16.35100        6.5656018E-18
   16.51250        6.5655393E-18
   16.67400        6.5640930E-18
   16.83550        6.5614762E-18
   16.99700        6.5582684E-18
   17.15850        6.5551789E-18
   17.32000        6.5527544E-18
   17.48150        6.5511865E-18
   17.64300        6.5503080E-18
   17.80450        6.5497923E-18
   17.96600        6.5494238E-18
   18.12750        6.5492707E-18
   18.28900        6.5496624E-18
   18.45050        6.5509739E-18
   18.61200        6.5533773E-18
   18.77350        6.5566835E-18
   18.93500        6.5603752E-18
   19.09650        6.5638122E-18
   19.25800        6.5665290E-18
   19.41950        6.5684431E-18
   19.58100        6.5698663E-18
   19.74250        6.5712919E-18
   19.90400        6.5730927E-18
   20.06550        6.5752955E-18
   20.22700        6.5775574E-18
   20.38850        6.5793483E-18
   20.55000        6.5802280E-18
   20.71150        6.5800865E-18
   20.87300        6.5792234E-18
   21.03450        6.5782109E-18
   21.19600        6.5776116E-18
   21.35750        6.5777042E-18
   21.51900        6.5783772E-18
   21.68050        6.5792345E-18
   21.84200        6.5798284E-18
   22.00350        6.5798905E-18
   22.16500        6.5794442E-18
   22.32650        6.5787527E-18
   22.48800        6.5781439E-18
   22.64950        6.5778048E-18
   22.81100        6.5776770E-18
   22.97250        6.5775210E-18
   23.13400        6.5770925E-18
   23.29550        6.5763171E-18
   23.45700        6.5753414E-18
   23.61850        6.5744435E-18
   23.78000        6.5738703E-18
   23.94150        6.5736970E-18
   24.10300        6.5737859E-18
   24.26450        6.5738699E-18
   24.42600        6.5737189E-18
   24.58750        6.5732937E-18
   24.74900        6.5727796E-18
   24.91050        6.5724814E-18
   25.07200        6.5726630E-18
   25.23350        6.5734302E-18
   25.39500        6.5747227E-18
   25.55650        6.5763965E-18
   25.71800        6.5783242E-18
   25.87950        6.5804596E-18
   26.04100        6.5828212E-18
   26.20250        6.5854181E-18
   26.36400        6.5881594E-18
   26.52550        6.5908424E-18
   26.68700        6.5932387E-18
   26.84850        6.5952417E-18
   27.01000        6.5969577E-18
   27.17150        6.5986708E-18
   27.33300        6.6006912E-18
   27.49450        6.6031690E-18
   27.65600        6.6059653E-18
   27.81750        6.6086578E-18
   27.97900        6.6106984E-18
   28.14050        6.6116567E-18
   28.30200        6.6114267E-18
   28.46350        6.6102720E-18
   28.62500        6.6086826E-18
   28.78650        6.6071217E-18
   28.94800        6.6058238E-18
   29.10950        6.6047394E-18
   29.27100        6.6036546E-18
   29.43250        6.6024076E-18
   29.59400        6.6010704E-18
   29.75550        6.5999827E-18
   29.91700        6.5995919E-18
   30.07850        6.6001779E-18
   30.24000        6.6016416E-18
   30.40150        6.6034986E-18
   30.56300        6.6051054E-18
   30.72450        6.6059864E-18
   30.88600        6.6060827E-18
   31.04750        6.6057788E-18
   31.20900        6.6056944E-18
   31.37050        6.6063429E-18
   31.53200        6.6078389E-18
   31.69350        6.6098307E-18
   31.85500        6.6117030E-18
   32.01650        6.6129301E-18
   32.17800        6.6133644E-18
   32.33950        6.6132945E-18
   32.50100        6.6132515E-18
   32.66250        6.6136866E-18
   32.82400        6.6147020E-18
   32.98550        6.6159870E-18
   33.14700        6.6169912E-18
   33.30850        6.6172493E-18
   33.47000        6.6166599E-18
   33.63150        6.6155527E-18
   33.79300        6.6144952E-18
   33.95450        6.6139794E-18
   34.11600        6.6141660E-18
   34.27750        6.6148368E-18
   34.43900        6.6155701E-18
   34.60050        6.6160325E-18
   34.76200        6.6162170E-18
   34.92350        6.6164796E-18
   35.08500        6.6173291E-18
   35.24650        6.6190947E-18
   35.40800        6.6216660E-18
   35.56950        6.6244817E-18
   35.73100        6.6267714E-18
   35.89250        6.6279236E-18
   36.05400        6.6277768E-18
   36.21550        6.6266874E-18
   36.37700        6.6253403E-18
   36.53850        6.6244151E-18
   36.70000        6.6242815E-18
   36.86150        6.6249077E-18
   37.02300        6.6260099E-18
   37.18450        6.6273235E-18
   37.34600        6.6288087E-18
   37.50750        6.6306533E-18
   37.66900        6.6330869E-18
   37.83050        6.6361301E-18
   37.99200        6.6394301E-18
   38.15350        6.6423174E-18
   38.31500        6.6440640E-18
   38.47650        6.6442228E-18
   38.63800        6.6428555E-18
   38.79950        6.6405050E-18
   38.96100        6.6379400E-18
   39.12250        6.6358170E-18
   39.28400        6.6344480E-18
   39.44550        6.6337834E-18
   39.60700        6.6335902E-18
   39.76850        6.6337027E-18
   39.93000        6.6341965E-18
   40.09150        6.6353666E-18
   40.25300        6.6375177E-18
   40.41450        6.6407065E-18
   40.57600        6.6446108E-18
   40.73750        6.6486201E-18
   40.89900        6.6520926E-18
   41.06050        6.6546362E-18
   41.22200        6.6562459E-18
   41.38350        6.6572381E-18
   41.54500        6.6580148E-18
   41.70650        6.6587890E-18
   41.86800        6.6594529E-18
   42.02950        6.6596609E-18
   42.19100        6.6590786E-18
   42.35250        6.6576306E-18
   42.51400        6.6555783E-18
   42.67550        6.6533880E-18
   42.83700        6.6514689E-18
   42.99850        6.6499477E-18
   43.16000        6.6486015E-18
   43.32150        6.6470096E-18
   43.48300        6.6448345E-18
   43.64450        6.6420701E-18
   43.80600        6.6391021E-18
   43.96750        6.6365408E-18
   44.12900        6.6349323E-18
   44.29050        6.6345258E-18
   44.45200        6.6352280E-18
   44.61350        6.6367443E-18
   44.77500        6.6388139E-18
   44.93650        6.6413785E-18
   45.09800        6.6445789E-18
   45.25950        6.6485663E-18
   45.42100        6.6532502E-18
   45.58250        6.6581500E-18
   45.74400        6.6624824E-18
   45.90550        6.6654536E-18
   46.06700        6.6666038E-18
   46.22850        6.6660058E-18
   46.39000        6.6642125E-18
   46.55150        6.6619766E-18
   46.71300        6.6599074E-18
   46.87450        6.6582402E-18
   47.03600        6.6568675E-18
   47.19750        6.6555895E-18
   47.35900        6.6544178E-18
   47.52050        6.6537102E-18
   47.68200        6.6540319E-18
   47.84350        6.6558166E-18
   48.00500        6.6590339E-18
   48.16650        6.6630883E-18
   48.32800        6.6670228E-18
   48.48950        6.6699576E-18
   48.65100        6.6715098E-18
   48.81250        6.6719561E-18
   48.97400        6.6720235E-18
   49.13550        6.6724293E-18
   49.29700        6.6734413E-18
   49.45850        6.6747243E-18
   49.62000        6.6755655E-18
   49.78150        6.6753504E-18
   49.94300        6.6739984E-18
   50.10450        6.6720988E-18
   50.26600        6.6706450E-18
   50.42750        6.6705032E-18
   50.58900        6.6719251E-18
   50.75050        6.6743913E-18
   50.91200        6.6768878E-18
   51.07350        6.6784623E-18
   51.23500        6.6787406E-18
   51.39650        6.6781012E-18
   51.55800        6.6774118E-18
   51.71950        6.6774767E-18
   51.88100        6.6785177E-18
   52.04250        6.6800083E-18
   52.20400        6.6809707E-18
   52.36550        6.6805795E-18
   52.52700        6.6787109E-18
   52.68850        6.6761102E-18
   52.85000        6.6740555E-18
   53.01150        6.6736882E-18
   53.17300        6.6753819E-18
   53.33450        6.6785032E-18
   53.49600        6.6817206E-18
   53.65750        6.6836880E-18
   53.81900        6.6837327E-18
   53.98050        6.6821511E-18
   54.14200        6.6799570E-18
   54.30350        6.6782460E-18
   54.46500        6.6775603E-18
   54.62650        6.6776148E-18
   54.78800        6.6775483E-18
   54.94950        6.6765403E-18
   55.11100        6.6744149E-18
   55.27250        6.6718593E-18
   55.43400        6.6701024E-18
   55.59550        6.6702352E-18
   55.75700        6.6725690E-18
   55.91850        6.6764142E-18
   56.08000        6.6804082E-18
   56.24150        6.6832103E-18
   56.40300        6.6841806E-18
   56.56450        6.6836574E-18
   56.72600        6.6826826E-18
   56.88750        6.6823443E-18
   57.04900        6.6831263E-18
   57.21050        6.6846492E-18
   57.37200        6.6859462E-18
   57.53350        6.6860988E-18
   57.69500        6.6848370E-18
   57.85650        6.6827545E-18
   58.01800        6.6810088E-18
   58.17950        6.6806787E-18
   58.34100        6.6821557E-18
   58.50250        6.6849251E-18
   58.66400        6.6878644E-18
   58.82550        6.6898807E-18
   58.98700        6.6905056E-18
   59.14850        6.6900871E-18
   59.31000        6.6894956E-18
   59.47150        6.6895300E-18
   59.63300        6.6904014E-18
   59.79450        6.6915954E-18
   59.95600        6.6922100E-18
   60.11750        6.6915599E-18
   60.27900        6.6896847E-18
   60.44050        6.6874355E-18
   60.60200        6.6860678E-18
   60.76350        6.6865778E-18
   60.92500        6.6891631E-18
   61.08650        6.6931224E-18
   61.24800        6.6972376E-18
   61.40950        6.7004099E-18
   61.57100        6.7021842E-18
   61.73250        6.7028633E-18
   61.89400        6.7031706E-18
   62.05550        6.7036756E-18
   62.21700        6.7043770E-18
   62.37850        6.7046992E-18
   62.54000        6.7039142E-18
   62.70150        6.7017023E-18
   62.86300        6.6984954E-18
   63.02450        6.6953645E-18
   63.18600        6.6935054E-18
   63.34750        6.6936071E-18
   63.50900        6.6954807E-18
   63.67050        6.6981653E-18
   63.83200        6.7004620E-18
   63.99350        6.7015675E-18
   64.15500        6.7014356E-18
   64.31650        6.7006597E-18
   64.47800        6.6999793E-18
   64.63950        6.6997341E-18
   64.80100        6.6996108E-18
   64.96250        6.6988444E-18
   65.12400        6.6967525E-18
   65.28550        6.6932750E-18
   65.44700        6.6891772E-18
   65.60850        6.6857601E-18
   65.77000        6.6842294E-18
   65.93150        6.6850839E-18
   66.09300        6.6878913E-18
   66.25450        6.6915768E-18
   66.41600        6.6950431E-18
   66.57750        6.6977666E-18
   66.73900        6.7000103E-18
   66.90050        6.7025295E-18
   67.06200        6.7059607E-18
   67.22350        6.7102736E-18
   67.38500        6.7146506E-18
   67.54650        6.7178857E-18
   67.70800        6.7190781E-18
   67.86950        6.7181930E-18
   68.03100        6.7161561E-18
   68.19250        6.7143934E-18
   68.35400        6.7140890E-18
   68.51550        6.7155800E-18
   68.67700        6.7182327E-18
   68.83850        6.7208665E-18
   69.00000        6.7224567E-18
   69.16150        6.7226958E-18
   69.32300        6.7220791E-18
   69.48450        6.7214848E-18
   69.64600        6.7215278E-18
   69.80750        6.7220915E-18
   69.96900        6.7223343E-18
   70.13050        6.7211783E-18
   70.29200        6.7179937E-18
   70.45350        6.7130740E-18
   70.61500        6.7076084E-18
   70.77650        6.7031433E-18
   70.93800        6.7008330E-18
   71.09950        6.7008934E-18
   71.26100        6.7025725E-18
   71.42250        6.7046264E-18
   71.58400        6.7060297E-18
   71.74550        6.7064954E-18
   71.90700        6.7065265E-18
   72.06850        6.7069781E-18
   72.23000        6.7084162E-18
   72.39150        6.7106847E-18
   72.55300        6.7129516E-18
   72.71450        6.7142168E-18
   72.87600        6.7139591E-18
   73.03750        6.7125256E-18
   73.19900        6.7110143E-18
   73.36050        6.7107012E-18
   73.52200        6.7123523E-18
   73.68350        6.7158107E-18
   73.84500        6.7201022E-18
   74.00650        6.7239808E-18
   74.16800        6.7265827E-18
   74.32950        6.7278115E-18
   74.49100        6.7282499E-18
   74.65250        6.7286771E-18
   74.81400        6.7295142E-18
   74.97550        6.7305312E-18
   75.13700        6.7309891E-18
   75.29850        6.7301114E-18
   75.46000        6.7276039E-18
   75.62150        6.7238968E-18
   75.78300        6.7199839E-18
   75.94450        6.7169324E-18
   76.10600        6.7153657E-18
   76.26750        6.7151949E-18
   76.42900        6.7157537E-18
   76.59050        6.7162309E-18
   76.75200        6.7161429E-18
   76.91350        6.7155601E-18
   77.07500        6.7149724E-18
   77.23650        6.7148851E-18
   77.39800        6.7154129E-18
   77.55950        6.7161251E-18
   77.72100        6.7162553E-18
   77.88250        6.7151498E-18
   78.04400        6.7126919E-18
   78.20550        6.7094381E-18
   78.36700        6.7063842E-18
   78.52850        6.7044887E-18
   78.69000        6.7042397E-18
   78.85150        6.7055003E-18
   79.01300        6.7076957E-18
   79.17450        6.7101950E-18
   79.33600        6.7126546E-18
   79.49750        6.7151147E-18
   79.65900        6.7178241E-18
   79.82050        6.7209289E-18
   79.98200        6.7242443E-18
   80.14350        6.7272693E-18
   80.30500        6.7294435E-18
   80.46650        6.7304663E-18
   80.62800        6.7304812E-18
   80.78950        6.7300101E-18
   80.95100        6.7296813E-18
   81.11250        6.7298964E-18
   81.27400        6.7306346E-18
   81.43550        6.7314966E-18
   81.59700        6.7319598E-18
   81.75850        6.7316992E-18
   81.92000        6.7307732E-18
   82.08150        6.7295696E-18
   82.24300        6.7285551E-18
   82.40450        6.7279889E-18
   82.56600        6.7277676E-18
   82.72750        6.7274852E-18
   82.88900        6.7266778E-18
   83.05050        6.7251041E-18
   83.21200        6.7229067E-18
   83.37350        6.7205422E-18
   83.53500        6.7185301E-18
   83.69650        6.7171719E-18
   83.85800        6.7164191E-18
   84.01950        6.7159646E-18
   84.18100        6.7154761E-18
   84.34250        6.7148338E-18
   84.50400        6.7142197E-18
   84.66550        6.7140112E-18
   84.82700        6.7145365E-18
   84.98850        6.7158339E-18
   85.15000        6.7175639E-18
   85.31150        6.7191439E-18
   85.47300        6.7200252E-18
   85.63450        6.7199549E-18
   85.79600        6.7190764E-18
   85.95750        6.7178497E-18
   86.11900        6.7168344E-18
   86.28050        6.7164551E-18
   86.44200        6.7168542E-18
   86.60350        6.7178923E-18
   86.76500        6.7192812E-18
   86.92650        6.7207606E-18
   87.08800        6.7222102E-18
   87.24950        6.7236470E-18
   87.41100        6.7251343E-18
   87.57250        6.7266836E-18
   87.73400        6.7281961E-18
   87.89550        6.7294745E-18
   88.05700        6.7302996E-18
   88.21850        6.7305341E-18
   88.38000        6.7301938E-18
   88.54150        6.7294402E-18
   88.70300        6.7284972E-18
   88.86450        6.7275604E-18
   89.02600        6.7267506E-18
   89.18750        6.7261162E-18
   89.34900        6.7256662E-18
   89.51050        6.7254011E-18
   89.67200        6.7253320E-18
   89.83350        6.7254726E-18
   89.99500        6.7258122E-18
   90.15650        6.7263027E-18
   90.31800        6.7268610E-18
   90.47950        6.7274082E-18
   90.64100        6.7278884E-18
   90.80250        6.7282577E-18
   90.96400        6.7284583E-18
   91.12550        6.7284079E-18
   91.28700        6.7280394E-18
   91.44850        6.7273656E-18
   91.61000        6.7265256E-18
   91.77150        6.7257787E-18
   91.93300        6.7254412E-18
   92.09450        6.7257663E-18
   92.25600        6.7268189E-18
   92.41750        6.7284145E-18
   92.57900        6.7301623E-18
   92.74050        6.7316041E-18
   92.90200        6.7323825E-18
   93.06350        6.7323502E-18
   93.22500        6.7315917E-18
   93.38650        6.7303571E-18
   93.54800        6.7289389E-18
   93.70950        6.7275476E-18
   93.87100        6.7262584E-18
   94.03250        6.7250441E-18
   94.19400        6.7238844E-18
   94.35550        6.7228591E-18
   94.51700        6.7221676E-18
   94.67850        6.7220497E-18
   94.84000        6.7226586E-18
   95.00150        6.7239448E-18
   95.16300        6.7256252E-18
   95.32450        6.7272709E-18
   95.48600        6.7284794E-18
   95.64750        6.7290365E-18
   95.80900        6.7289898E-18
   95.97050        6.7285704E-18
   96.13200        6.7280348E-18
   96.29350        6.7275211E-18
   96.45500        6.7270037E-18
   96.61650        6.7263718E-18
   96.77800        6.7255665E-18
   96.93950        6.7246930E-18
   97.10100        6.7240259E-18
   97.26250        6.7238844E-18
   97.42400        6.7244461E-18
   97.58550        6.7256128E-18
   97.74700        6.7270223E-18
   97.90850        6.7282180E-18
   98.07000        6.7288761E-18
   98.23150        6.7289670E-18
   98.39300        6.7287598E-18
   98.55450        6.7286519E-18
   98.71600        6.7289203E-18
   98.87750        6.7295328E-18
   99.03900        6.7301383E-18
   99.20050        6.7302657E-18
   99.36200        6.7296259E-18
   99.52350        6.7283450E-18
   99.68500        6.7269649E-18
   99.84650        6.7261985E-18
   100.0080        6.7265587E-18
   100.1695        6.7280571E-18
   100.3310        6.7301623E-18
   100.4925        6.7320429E-18
   100.6540        6.7329958E-18
   100.8155        6.7328225E-18
   100.9770        6.7319284E-18
   101.1385        6.7310846E-18
   101.3000        6.7309759E-18
   101.4615        6.7317948E-18
   101.6230        6.7331290E-18
   101.7845        6.7341936E-18
   101.9460        6.7342957E-18
   102.1075        6.7332481E-18
   102.2690        6.7315007E-18
   102.4305        6.7298960E-18
   102.5920        6.7291730E-18
   102.7535        6.7295159E-18
   102.9150        6.7304146E-18
   103.0765        6.7309349E-18
   103.2380        6.7302521E-18
   103.3995        6.7281432E-18
   103.5610        6.7251699E-18
   103.7225        6.7224348E-18
   103.8840        6.7210563E-18
   104.0455        6.7216246E-18
   104.2070        6.7239382E-18
   104.3685        6.7271650E-18
   104.5300        6.7303170E-18
   104.6915        6.7327671E-18
   104.8530        6.7345005E-18
   105.0145        6.7359857E-18
   105.1760        6.7377600E-18
   105.3375        6.7399958E-18
   105.4990        6.7423091E-18
   105.6605        6.7439403E-18
   105.8220        6.7441967E-18
   105.9835        6.7428997E-18
   106.1450        6.7405414E-18
   106.3065        6.7380416E-18
   106.4680        6.7362392E-18
   106.6295        6.7354306E-18
   106.7910        6.7352400E-18
   106.9525        6.7348880E-18
   107.1140        6.7337006E-18
   107.2755        6.7315458E-18
   107.4370        6.7289377E-18
   107.5985        6.7267390E-18
   107.7600        6.7256356E-18
   107.9215        6.7257216E-18
   108.0830        6.7264487E-18
   108.2445        6.7269789E-18
   108.4060        6.7267150E-18
   108.5675        6.7256749E-18
   108.7290        6.7244862E-18
   108.8905        6.7240126E-18
   109.0520        6.7248150E-18
   109.2135        6.7267771E-18
   109.3750        6.7291180E-18
   109.5365        6.7308017E-18
   109.6980        6.7311111E-18
   109.8595        6.7300420E-18
   110.0210        6.7282772E-18
   110.1825        6.7267576E-18
   110.3440        6.7260980E-18
   110.5055        6.7261968E-18
   110.6670        6.7262783E-18
   110.8285        6.7253618E-18
   110.9900        6.7228931E-18
   111.1515        6.7191786E-18
   111.3130        6.7153297E-18
   111.4745        6.7127278E-18
   111.6360        6.7123122E-18
   111.7975        6.7141067E-18
   111.9590        6.7172471E-18
   112.1205        6.7204893E-18
   112.2820        6.7228856E-18
   112.4435        6.7242397E-18
   112.6050        6.7250855E-18
   112.7665        6.7262369E-18
   112.9280        6.7282027E-18
   113.0895        6.7308423E-18
   113.2510        6.7334772E-18
   113.4125        6.7353686E-18
   113.5740        6.7362446E-18
   113.7355        6.7365254E-18
   113.8970        6.7371057E-18
   114.0585        6.7388204E-18
   114.2200        6.7419120E-18
   114.3815        6.7458159E-18
   114.5430        6.7494038E-18
   114.7045        6.7515445E-18
   114.8660        6.7516636E-18
   115.0275        6.7499733E-18
   115.1890        6.7472515E-18
   115.3505        6.7443112E-18
   115.5120        6.7415108E-18
   115.6735        6.7385983E-18
   115.8350        6.7349856E-18
   115.9965        6.7302814E-18
   116.1580        6.7247348E-18
   116.3195        6.7192911E-18
   116.4810        6.7151821E-18
   116.6425        6.7132775E-18
   116.8040        6.7135910E-18
   116.9655        6.7152582E-18
   117.1270        6.7170259E-18
   117.2885        6.7179668E-18
   117.4500        6.7179833E-18
   117.6115        6.7177976E-18
   117.7730        6.7184317E-18
   117.9345        6.7204926E-18
   118.0960        6.7237070E-18
   118.2575        6.7270021E-18
   118.4190        6.7290994E-18
   118.5805        6.7292694E-18
   118.7420        6.7277842E-18