  -27.90000        6.0290023E-18
  -27.73850        6.0304366E-18
  -27.57700        6.0327523E-18
  -27.41550        6.0352789E-18
  -27.25400        6.0376707E-18
  -27.09250        6.0400191E-18
  -26.93100        6.0425779E-18
  -26.76950        6.0453941E-18
  -26.60800        6.0482044E-18
  -26.44650        6.0506740E-18
  -26.28500        6.0527246E-18
  -26.12350        6.0546147E-18
  -25.96200        6.0566938E-18
  -25.80050        6.0590666E-18
  -25.63900        6.0615038E-18
  -25.47750        6.0636764E-18
  -25.31600        6.0654838E-18
  -25.15450        6.0671535E-18
  -24.99300        6.0690101E-18
  -24.83150        6.0711397E-18
  -24.67000        6.0732874E-18
  -24.50850        6.0750981E-18
  -24.34700        6.0764704E-18
  -24.18550        6.0776843E-18
  -24.02400        6.0791683E-18
  -23.86250        6.0811101E-18
  -23.70100        6.0832868E-18
  -23.53950        6.0852687E-18
  -23.37800        6.0868019E-18
  -23.21650        6.0880154E-18
  -23.05500        6.0892698E-18
  -22.89350        6.0908005E-18
  -22.73200        6.0925165E-18
  -22.57050        6.0941320E-18
  -22.40900        6.0954964E-18
  -22.24750        6.0967719E-18
  -22.08600        6.0982728E-18
  -21.92450        6.1001191E-18
  -21.76300        6.1020531E-18
  -21.60150        6.1036359E-18
  -21.44000        6.1046641E-18
  -21.27850        6.1054180E-18
  -21.11700        6.1064855E-18
  -20.95550        6.1082925E-18
  -20.79400        6.1107434E-18
  -20.63250        6.1132924E-18
  -20.47100        6.1153777E-18
  -20.30950        6.1168348E-18
  -20.14800        6.1179395E-18
  -19.98650        6.1190740E-18
  -19.82500        6.1203553E-18
  -19.66350        6.1215625E-18
  -19.50200        6.1224162E-18
  -19.34050        6.1229129E-18
  -19.17900        6.1233885E-18
  -19.01750        6.1242600E-18
  -18.85600        6.1257063E-18
  -18.69450        6.1275836E-18
  -18.53300        6.1296325E-18
  -18.37150        6.1317410E-18
  -18.21000        6.1339744E-18
  -18.04850        6.1363662E-18
  -17.88700        6.1386943E-18
  -17.72550        6.1405331E-18
  -17.56400        6.1415741E-18
  -17.40250        6.1419331E-18
  -17.24100        6.1421275E-18
  -17.07950        6.1426995E-18
  -16.91800        6.1438029E-18
  -16.75650        6.1451248E-18
  -16.59500        6.1462100E-18
  -16.43350        6.1468970E-18
  -16.27200        6.1474620E-18
  -16.11050        6.1483508E-18
  -15.94900        6.1497603E-18
  -15.78750        6.1514610E-18
  -15.62600        6.1530248E-18
  -15.46450        6.1542337E-18
  -15.30300        6.1552730E-18
  -15.14150        6.1565275E-18
  -14.98000        6.1581764E-18
  -14.81850        6.1599867E-18
  -14.65700        6.1615034E-18
  -14.49550        6.1624691E-18
  -14.33400        6.1630692E-18
  -14.17250        6.1637802E-18
  -14.01100        6.1649523E-18
  -13.84950        6.1665243E-18
  -13.68800        6.1681117E-18
  -13.52650        6.1693814E-18
  -13.36500        6.1703455E-18
  -13.20350        6.1713117E-18
  -13.04200        6.1725586E-18
  -12.88050        6.1740571E-18
  -12.71900        6.1755038E-18
  -12.55750        6.1766197E-18
  -12.39600        6.1774096E-18
  -12.23450        6.1781334E-18
  -12.07300        6.1790437E-18
  -11.91150        6.1801629E-18
  -11.75000        6.1813296E-18
  -11.58850        6.1824418E-18
  -11.42700        6.1836189E-18
  -11.26550        6.1850809E-18
  -11.10400        6.1868320E-18
  -10.94250        6.1884947E-18
  -10.78100        6.1895055E-18
  -10.61950        6.1895708E-18
  -10.45800        6.1889728E-18
  -10.29650        6.1884331E-18
  -10.13500        6.1885972E-18
  -9.973500        6.1895671E-18
  -9.812000        6.1908823E-18
  -9.650500        6.1919552E-18
  -9.489000        6.1925809E-18
  -9.327500        6.1930686E-18
  -9.166000        6.1939127E-18
  -9.004500        6.1953082E-18
  -8.843000        6.1969518E-18
  -8.681500        6.1982976E-18
  -8.520000        6.1990090E-18
  -8.358500        6.1992087E-18
  -8.197000        6.1993328E-18
  -8.035500        6.1997572E-18
  -7.874000        6.2005616E-18
  -7.712500        6.2016076E-18
  -7.551000        6.2027933E-18
  -7.389500        6.2042020E-18
  -7.228000        6.2059800E-18
  -7.066500        6.2081109E-18
  -6.905000        6.2103442E-18
  -6.743500        6.2123849E-18
  -6.582000        6.2141654E-18
  -6.420500        6.2159033E-18
  -6.259000        6.2178679E-18
  -6.097500        6.2200549E-18
  -5.936000        6.2221018E-18
  -5.774500        6.2235518E-18
  -5.613000        6.2242396E-18
  -5.451500        6.2244406E-18
  -5.290000        6.2246218E-18
  -5.128500        6.2250279E-18
  -4.967000        6.2254891E-18
  -4.805500        6.2256429E-18
  -4.644000        6.2253596E-18
  -4.482500        6.2249556E-18
  -4.321000        6.2249676E-18
  -4.159500        6.2256723E-18
  -3.998000        6.2267977E-18
  -3.836500        6.2277159E-18
  -3.675000        6.2279681E-18
  -3.513500        6.2276749E-18
  -3.352000        6.2274565E-18
  -3.190500        6.2279433E-18
  -3.029000        6.2292945E-18
  -2.867500        6.2311358E-18
  -2.706000        6.2329312E-18
  -2.544500        6.2344284E-18
  -2.383000        6.2357941E-18
  -2.221500        6.2373525E-18
  -2.060000        6.2392211E-18
  -1.898500        6.2411749E-18
  -1.737000        6.2428417E-18
  -1.575500        6.2439960E-18
  -1.414000        6.2446797E-18
  -1.252500        6.2450705E-18
  -1.091000        6.2453013E-18
 -0.9295000        6.2454357E-18
 -0.7680000        6.2456119E-18
 -0.6065000        6.2461227E-18
 -0.4450000        6.2472704E-18
 -0.2835000        6.2490567E-18
 -0.1220000        6.2510386E-18
  3.9500002E-02    6.2525528E-18
  0.2010000        6.2531938E-18
  0.3625000        6.2531512E-18
  0.5240000        6.2530702E-18
  0.6855000        6.2535193E-18
  0.8470000        6.2545037E-18
   1.008500        6.2554537E-18
   1.170000        6.2557192E-18
   1.331500        6.2551443E-18
   1.493000        6.2542287E-18
   1.654500        6.2537311E-18
   1.816000        6.2540719E-18
   1.977500        6.2550422E-18
   2.139000        6.2560526E-18
   2.300500        6.2566630E-18
   2.462000        6.2569244E-18
   2.623500        6.2572590E-18
   2.785000        6.2580324E-18
   2.946500        6.2592277E-18
   3.108000        6.2605016E-18
   3.269500        6.2615136E-18
   3.431000        6.2622076E-18
   3.592500        6.2627925E-18
   3.754000        6.2635013E-18
   3.915500        6.2643897E-18
   4.077000        6.2653749E-18
   4.238500        6.2664238E-18
   4.400000        6.2676563E-18
   4.561500        6.2692213E-18
   4.723000        6.2710812E-18
   4.884500        6.2729519E-18
   5.046000        6.2744933E-18
   5.207500        6.2755852E-18
   5.369000        6.2763983E-18
   5.530500        6.2771726E-18
   5.692000        6.2779092E-18
   5.853500        6.2783145E-18
   6.015000        6.2780998E-18
   6.176500        6.2773868E-18
   6.338000        6.2767983E-18
   6.499500        6.2770774E-18
   6.661000        6.2785027E-18
   6.822500        6.2806074E-18
   6.984000        6.2824976E-18
   7.145500        6.2835299E-18
   7.307000        6.2838090E-18
   7.468500        6.2840733E-18
   7.630000        6.2850746E-18
   7.791500        6.2869701E-18
   7.953000        6.2892275E-18
   8.114500        6.2910957E-18
   8.276000        6.2922136E-18
   8.437500        6.2928530E-18
   8.599000        6.2936368E-18
   8.760500        6.2950153E-18
   8.922000        6.2969488E-18
   9.083500        6.2990031E-18
   9.245000        6.3006935E-18
   9.406500        6.3017580E-18
   9.568000        6.3021898E-18
   9.729500        6.3021150E-18
   9.891000        6.3017130E-18
   10.05250        6.3012282E-18
   10.21400        6.3009598E-18
   10.37550        6.3011228E-18
   10.53700        6.3016567E-18
   10.69850        6.3022022E-18
   10.86000        6.3023590E-18
   11.02150        6.3020744E-18
   11.18300        6.3018015E-18
   11.34450        6.3022200E-18
   11.50600        6.3036821E-18
   11.66750        6.3058526E-18
   11.82900        6.3078854E-18
   11.99050        6.3090298E-18
   12.15200        6.3091778E-18
   12.31350        6.3088825E-18
   12.47500        6.3088284E-18
   12.63650        6.3092238E-18
   12.79800        6.3096373E-18
   12.95950        6.3094330E-18
   13.12100        6.3083966E-18
   13.28250        6.3070069E-18
   13.44400        6.3061078E-18
   13.60550        6.3062687E-18
   13.76700        6.3073746E-18
   13.92850        6.3087771E-18
   14.09000        6.3098197E-18
   14.25150        6.3102904E-18
   14.41300        6.3104501E-18
   14.57450        6.3107015E-18
   14.73600        6.3112412E-18
   14.89750        6.3119762E-18
   15.05900        6.3127037E-18
   15.22050        6.3133233E-18
   15.38200        6.3138795E-18
   15.54350        6.3144635E-18
   15.70500        6.3151364E-18
   15.86650        6.3159636E-18
   16.02800        6.3170704E-18
   16.18950        6.3185606E-18
   16.35100        6.3203262E-18
   16.51250        6.3219516E-18
   16.67400        6.3229128E-18
   16.83550        6.3229967E-18
   16.99700        6.3225993E-18
   17.15850        6.3225678E-18
   17.32000        6.3236254E-18
   17.48150        6.3257926E-18
   17.64300        6.3283221E-18
   17.80450        6.3302428E-18
   17.96600        6.3311068E-18
   18.12750        6.3313322E-18
   18.28900        6.3318459E-18
   18.45050        6.3333220E-18
   18.61200        6.3356377E-18
   18.77350        6.3379823E-18
   18.93500        6.3395019E-18
   19.09650        6.3399250E-18
   19.25800        6.3396909E-18
   19.41950        6.3395296E-18
   19.58100        6.3398964E-18
   19.74250        6.3407178E-18
   19.90400        6.3415715E-18
   20.06550        6.3420802E-18
   20.22700        6.3421542E-18
   20.38850        6.3419660E-18
   20.55000        6.3417580E-18
   20.71150        6.3417080E-18
   20.87300        6.3419003E-18
   21.03450        6.3423350E-18
   21.19600        6.3428838E-18
   21.35750        6.3432726E-18
   21.51900        6.3431903E-18
   21.68050        6.3425397E-18
   21.84200        6.3416339E-18
   22.00350        6.3410996E-18
   22.16500        6.3414780E-18
   22.32650        6.3428143E-18
   22.48800        6.3445985E-18
   22.64950        6.3461648E-18
   22.81100        6.3472339E-18
   22.97250        6.3481285E-18
   23.13400        6.3494326E-18
   23.29550        6.3513736E-18
   23.45700        6.3534680E-18
   23.61850        6.3547878E-18
   23.78000        6.3546662E-18
   23.94150        6.3532620E-18
   24.10300        6.3515034E-18
   24.26450        6.3504459E-18
   24.42600        6.3505456E-18
   24.58750        6.3514162E-18
   24.74900        6.3522194E-18
   24.91050        6.3523356E-18
   25.07200        6.3517810E-18
   25.23350        6.3511076E-18
   25.39500        6.3509401E-18
   25.55650        6.3515498E-18
   25.71800        6.3527508E-18
   25.87950        6.3541033E-18
   26.04100        6.3552076E-18
   26.20250        6.3559045E-18
   26.36400        6.3563280E-18
   26.52550        6.3568466E-18
   26.68700        6.3579162E-18
   26.84850        6.3598468E-18
   27.01000        6.3625583E-18
   27.17150        6.3654977E-18
   27.33300        6.3678709E-18
   27.49450        6.3691207E-18
   27.65600        6.3693370E-18
   27.81750        6.3692411E-18
   27.97900        6.3696729E-18
   28.14050        6.3709256E-18
   28.30200        6.3724592E-18
   28.46350        6.3732649E-18
   28.62500        6.3726375E-18
   28.78650        6.3707490E-18
   28.94800        6.3685673E-18
   29.10950        6.3671682E-18
   29.27100        6.3669949E-18
   29.43250        6.3676310E-18
   29.59400        6.3682373E-18
   29.75550        6.3682551E-18
   29.91700        6.3678030E-18
   30.07850        6.3674933E-18
   30.24000        6.3678800E-18
   30.40150        6.3690157E-18
   30.56300        6.3704488E-18
   30.72450        6.3716035E-18
   30.88600        6.3721949E-18
   31.04750        6.3723860E-18
   31.20900        6.3726325E-18
   31.37050        6.3733915E-18
   31.53200        6.3748791E-18
   31.69350        6.3769752E-18
   31.85500        6.3792644E-18
   32.01650        6.3811790E-18
   32.17800        6.3822394E-18
   32.33950        6.3823047E-18
   32.50100        6.3816740E-18
   32.66250        6.3809151E-18
   32.82400        6.3804643E-18
   32.98550        6.3802790E-18
   33.14700        6.3798679E-18
   33.30850        6.3787388E-18
   33.47000        6.3769434E-18
   33.63150        6.3752315E-18
   33.79300        6.3746145E-18
   33.95450        6.3756203E-18
   34.11600        6.3778363E-18
   34.27750        6.3801359E-18
   34.43900        6.3814631E-18
   34.60050        6.3815652E-18
   34.76200        6.3811161E-18
   34.92350        6.3811426E-18
   35.08500        6.3822286E-18
   35.24650        6.3841097E-18
   35.40800        6.3859183E-18
   35.56950        6.3868360E-18
   35.73100        6.3866313E-18
   35.89250        6.3857375E-18
   36.05400        6.3848959E-18
   36.21550        6.3846879E-18
   36.37700        6.3852512E-18
   36.53850        6.3862922E-18
   36.70000        6.3873017E-18
   36.86150        6.3878531E-18
   37.02300        6.3878394E-18
   37.18450        6.3875660E-18
   37.34600        6.3876186E-18
   37.50750        6.3885210E-18
   37.66900        6.3903648E-18
   37.83050        6.3926788E-18
   37.99200        6.3947100E-18
   38.15350        6.3959632E-18
   38.31500        6.3966092E-18
   38.47650        6.3973880E-18
   38.63800        6.3990357E-18
   38.79950        6.4016525E-18
   38.96100        6.4045332E-18
   39.12250        6.4066197E-18
   39.28400        6.4072393E-18
   39.44550        6.4065486E-18
   39.60700        6.4053562E-18
   39.76850        6.4044835E-18
   39.93000        6.4041994E-18
   40.09150        6.4041535E-18
   40.25300        6.4038057E-18
   40.41450        6.4029611E-18
   40.57600        6.4019726E-18
   40.73750        6.4014838E-18
   40.89900        6.4019557E-18
   41.06050        6.4033375E-18
   41.22200        6.4050936E-18
   41.38350        6.4065072E-18
   41.54500        6.4070577E-18
   41.70650        6.4066528E-18
   41.86800        6.4056391E-18
   42.02950        6.4046146E-18
   42.19100        6.4041221E-18
   42.35250        6.4043557E-18
   42.51400        6.4050406E-18
   42.67550        6.4055940E-18
   42.83700        6.4055212E-18
   42.99850        6.4048032E-18
   43.16000        6.4039773E-18
   43.32150        6.4037924E-18
   43.48300        6.4046378E-18
   43.64450        6.4061970E-18
   43.80600        6.4076206E-18
   43.96750        6.4081459E-18
   44.12900        6.4076938E-18
   44.29050        6.4069667E-18
   44.45200        6.4069423E-18
   44.61350        6.4081517E-18
   44.77500        6.4102912E-18
   44.93650        6.4124720E-18
   45.09800        6.4138898E-18
   45.25950        6.4143791E-18
   45.42100        6.4144477E-18
   45.58250        6.4148179E-18
   45.74400        6.4158709E-18
   45.90550        6.4174161E-18
   46.06700        6.4188885E-18
   46.22850        6.4197545E-18
   46.39000        6.4198099E-18
   46.55150        6.4192156E-18
   46.71300        6.4183467E-18
   46.87450        6.4175927E-18
   47.03600        6.4172097E-18
   47.19750        6.4172366E-18
   47.35900        6.4174880E-18
   47.52050        6.4176671E-18
   47.68200        6.4175927E-18
   47.84350        6.4173966E-18
   48.00500        6.4175046E-18
   48.16650        6.4183169E-18
   48.32800        6.4198116E-18
   48.48950        6.4214180E-18
   48.65100        6.4223618E-18
   48.81250        6.4222617E-18
   48.97400        6.4214941E-18
   49.13550        6.4209750E-18
   49.29700        6.4214792E-18
   49.45850        6.4230438E-18
   49.62000        6.4249467E-18
   49.78150        6.4262859E-18
   49.94300        6.4266776E-18
   50.10450        6.4264890E-18
   50.26600        6.4264472E-18
   50.42750        6.4269936E-18
   50.58900        6.4279304E-18
   50.75050        6.4286322E-18
   50.91200        6.4285756E-18
   51.07350        6.4277302E-18
   51.23500        6.4265411E-18
   51.39650        6.4255928E-18
   51.55800        6.4252731E-18
   51.71950        6.4256523E-18
   51.88100        6.4265473E-18
   52.04250        6.4276467E-18
   52.20400        6.4286132E-18
   52.36550        6.4291989E-18
   52.52700        6.4293974E-18
   52.68850        6.4295148E-18
   52.85000        6.4300310E-18
   53.01150        6.4312499E-18
   53.17300        6.4329973E-18
   53.33450        6.4346574E-18
   53.49600        6.4355868E-18
   53.65750        6.4356041E-18
   53.81900        6.4351260E-18
   53.98050        6.4348080E-18
   54.14200        6.4349817E-18
   54.30350        6.4353787E-18
   54.46500        6.4353824E-18
   54.62650        6.4345995E-18
   54.78800        6.4332330E-18
   54.94950        6.4319418E-18
   55.11100        6.4313123E-18
   55.27250        6.4314054E-18
   55.43400        6.4317664E-18
   55.59550        6.4318537E-18
   55.75700        6.4315017E-18
   55.91850        6.4310211E-18
   56.08000        6.4309037E-18
   56.24150        6.4314178E-18
   56.40300        6.4324439E-18
   56.56450        6.4336297E-18
   56.72600        6.4346893E-18
   56.88750        6.4355640E-18
   57.04900        6.4363676E-18
   57.21050        6.4372171E-18
   57.37200        6.4381200E-18
   57.53350        6.4389898E-18
   57.69500        6.4397136E-18
   57.85650        6.4401925E-18
   58.01800        6.4403484E-18
   58.17950        6.4401714E-18
   58.34100        6.4398062E-18
   58.50250        6.4395804E-18
   58.66400        6.4398658E-18
   58.82550        6.4408092E-18
   58.98700        6.4421442E-18
   59.14850        6.4432969E-18
   59.31000        6.4437680E-18
   59.47150        6.4435240E-18
   59.63300        6.4430550E-18
   59.79450        6.4430227E-18
   59.95600        6.4437498E-18
   60.11750        6.4449831E-18
   60.27900        6.4461242E-18
   60.44050        6.4467384E-18
   60.60200        6.4468972E-18
   60.76350        6.4470635E-18
   60.92500        6.4476346E-18
   61.08650        6.4485578E-18
   61.24800        6.4493581E-18
   61.40950        6.4495289E-18
   61.57100        6.4489366E-18
   61.73250        6.4478828E-18
   61.89400        6.4468058E-18
   62.05550        6.4459240E-18
   62.21700        6.4451312E-18
   62.37850        6.4441990E-18
   62.54000        6.4430587E-18
   62.70150        6.4418779E-18
   62.86300        6.4408931E-18
   63.02450        6.4401904E-18
   63.18600        6.4396648E-18
   63.34750        6.4391747E-18
   63.50900        6.4387238E-18
   63.67050        6.4384773E-18
   63.83200        6.4386229E-18
   63.99350        6.4392280E-18
   64.15500        6.4402248E-18
   64.31650        6.4415069E-18
   64.47800        6.4429958E-18
   64.63950        6.4446125E-18
   64.80100        6.4462160E-18
   64.96250        6.4476421E-18
   65.12400        6.4488531E-18
   65.28550        6.4500496E-18
   65.44700        6.4515691E-18
   65.60850        6.4535974E-18
   65.77000        6.4559284E-18
   65.93150        6.4580261E-18
   66.09300        6.4593876E-18
   66.25450        6.4599183E-18
   66.41600        6.4599832E-18
   66.57750        6.4600672E-18
   66.73900        6.4603360E-18
   66.90050        6.4604866E-18
   67.06200        6.4600386E-18
   67.22350        6.4588065E-18
   67.38500        6.4571468E-18
   67.54650        6.4557394E-18
   67.70800        6.4550913E-18
   67.86950        6.4551715E-18
   68.03100        6.4554780E-18
   68.19250        6.4554660E-18
   68.35400        6.4549618E-18
   68.51550        6.4542438E-18
   68.67700        6.4537690E-18
   68.83850        6.4538087E-18
   69.00000        6.4542872E-18
   69.16150        6.4549018E-18
   69.32300        6.4553866E-18
   69.48450        6.4556835E-18
   69.64600        6.4559284E-18
   69.80750        6.4563093E-18
   69.96900        6.4569239E-18
   70.13050        6.4577163E-18
   70.29200        6.4584877E-18
   70.45350        6.4589633E-18
   70.61500        6.4589174E-18
   70.77650        6.4583247E-18
   70.93800        6.4574549E-18
   71.09950        6.4567891E-18
   71.26100        6.4567394E-18
   71.42250        6.4573462E-18
   71.58400        6.4581990E-18
   71.74550        6.4587122E-18
   71.90700        6.4585828E-18
   72.06850        6.4580790E-18
   72.23000        6.4578950E-18
   72.39150        6.4586432E-18
   72.55300        6.4603674E-18
   72.71450        6.4624817E-18
   72.87600        6.4641911E-18
   73.03750        6.4650658E-18
   73.19900        6.4653041E-18
   73.36050        6.4654922E-18
   73.52200        6.4660766E-18
   73.68350        6.4669816E-18
   73.84500        6.4676727E-18
   74.00650        6.4675714E-18
   74.16800        6.4664890E-18
   74.32950        6.4647606E-18
   74.49100        6.4630090E-18
   74.65250        6.4617526E-18
   74.81400        6.4611264E-18
   74.97550        6.4608807E-18
   75.13700        6.4606015E-18
   75.29850        6.4600010E-18
   75.46000        6.4591130E-18
   75.62150        6.4582916E-18
   75.78300        6.4580207E-18
   75.94450        6.4586204E-18
   76.10600        6.4600291E-18
   76.26750        6.4618208E-18
   76.42900        6.4634863E-18
   76.59050        6.4647991E-18
   76.75200        6.4659815E-18
   76.91350        6.4675015E-18
   77.07500        6.4696281E-18
   77.23650        6.4720749E-18
   77.39800        6.4740639E-18
   77.55950        6.4748046E-18
   77.72100        6.4740606E-18
   77.88250        6.4723541E-18
   78.04400        6.4706270E-18
   78.20550        6.4695835E-18
   78.36700        6.4692067E-18
   78.52850        6.4687948E-18
   78.69000        6.4674940E-18
   78.85150        6.4649322E-18
   79.01300        6.4615102E-18
   79.17450        6.4581684E-18
   79.33600        6.4557981E-18
   79.49750        6.4547120E-18
   79.65900        6.4545114E-18
   79.82050        6.4544225E-18
   79.98200        6.4538741E-18
   80.14350        6.4529352E-18
   80.30500        6.4523078E-18
   80.46650        6.4528802E-18
   80.62800        6.4551028E-18
   80.78950        6.4586142E-18
   80.95100        6.4623907E-18
   81.11250        6.4653611E-18
   81.27400        6.4670862E-18
   81.43550        6.4680197E-18
   81.59700        6.4691480E-18
   81.75850        6.4712387E-18
   81.92000        6.4742430E-18
   82.08150        6.4772738E-18
   82.24300        6.4791858E-18
   82.40450        6.4793210E-18
   82.56600        6.4779157E-18
   82.72750        6.4758853E-18
   82.88900        6.4741880E-18
   83.05050        6.4732355E-18
   83.21200        6.4727330E-18
   83.37350        6.4720307E-18
   83.53500        6.4706774E-18
   83.69650        6.4687981E-18
   83.85800        6.4670502E-18
   84.01950        6.4662073E-18
   84.18100        6.4666441E-18
   84.34250        6.4680507E-18
   84.50400        6.4695860E-18
   84.66550        6.4703862E-18
   84.82700        6.4701257E-18
   84.98850        6.4692410E-18
   85.15000        6.4686310E-18
   85.31150        6.4690111E-18
   85.47300        6.4703627E-18
   85.63450        6.4719016E-18
   85.79600        6.4726275E-18
   85.95750        6.4720609E-18
   86.11900        6.4706208E-18
   86.28050        6.4693217E-18
   86.44200        6.4690119E-18
   86.60350        6.4697357E-18
   86.76500        6.4707113E-18
   86.92650        6.4709392E-18
   87.08800        6.4699619E-18
   87.24950        6.4682046E-18
   87.41100        6.4666606E-18
   87.57250        6.4661809E-18
   87.73400        6.4669009E-18
   87.89550        6.4681888E-18
   88.05700        6.4691153E-18
   88.21850        6.4690909E-18
   88.38000        6.4682488E-18
   88.54150        6.4673509E-18
   88.70300        6.4672980E-18
   88.86450        6.4685520E-18
   89.02600        6.4708073E-18
   89.18750        6.4731126E-18
   89.34900        6.4744006E-18
   89.51050        6.4741330E-18
   89.67200        6.4726507E-18
   89.83350        6.4709545E-18
   89.99500        6.4700227E-18
   90.15650        6.4701141E-18
   90.31800        6.4705885E-18
   90.47950        6.4704148E-18
   90.64100        6.4690189E-18
   90.80250        6.4668257E-18
   90.96400        6.4650352E-18
   91.12550        6.4647664E-18
   91.28700        6.4662057E-18
   91.44850        6.4684382E-18
   91.61000        6.4700967E-18
   91.77150        6.4703552E-18
   91.93300        6.4695003E-18
   92.09450        6.4686814E-18
   92.25600        6.4690545E-18
   92.41750        6.4709719E-18
   92.57900        6.4737897E-18
   92.74050        6.4763606E-18
   92.90200        6.4778069E-18
   93.06350        6.4780277E-18
   93.22500        6.4776468E-18
   93.38650        6.4774926E-18
   93.54800        6.4780058E-18
   93.70950        6.4789426E-18
   93.87100        6.4795365E-18
   94.03250        6.4790104E-18
   94.19400        6.4771249E-18
   94.35550        6.4744233E-18
   94.51700        6.4719811E-18
   94.67850        6.4707577E-18
   94.84000        6.4709529E-18
   95.00150        6.4718375E-18
   95.16300        6.4722445E-18
   95.32450        6.4714273E-18
   95.48600        6.4696587E-18
   95.64750        6.4680991E-18
   95.80900        6.4679796E-18
   95.97050        6.4696840E-18
   96.13200        6.4724381E-18
   96.29350        6.4748381E-18
   96.45500        6.4758407E-18
   96.61650        6.4754370E-18
   96.77800        6.4745428E-18
   96.93950        6.4742111E-18
   97.10100        6.4748166E-18
   97.26250        6.4758109E-18
   97.42400        6.4761848E-18
   97.58550        6.4752373E-18
   97.74700        6.4730915E-18
   97.90850        6.4706228E-18
   98.07000        6.4688982E-18
   98.23150        6.4685292E-18
   98.39300        6.4693523E-18
   98.55450        6.4705980E-18
   98.71600        6.4714177E-18
   98.87750        6.4714376E-18
   99.03900        6.4710004E-18
   99.20050        6.4709434E-18
   99.36200        6.4720241E-18
   99.52350        6.4743646E-18
   99.68500        6.4772862E-18
   99.84650        6.4796986E-18
   100.0080        6.4807971E-18
   100.1695        6.4805722E-18
   100.3310        6.4797644E-18
   100.4925        6.4792739E-18
   100.6540        6.4794840E-18
   100.8155        6.4799973E-18
   100.9770        6.4799820E-18
   101.1385        6.4788516E-18
   101.3000        6.4767543E-18
   101.4615        6.4745040E-18
   101.6230        6.4730229E-18
   101.7845        6.4727201E-18
   101.9460        6.4732504E-18
   102.1075        6.4737959E-18
   102.2690        6.4736445E-18
   102.4305        6.4726635E-18
   102.5920        6.4713793E-18
   102.7535        6.4706402E-18
   102.9150        6.4710960E-18
   103.0765        6.4728111E-18
   103.2380        6.4752468E-18
   103.3995        6.4776063E-18
   103.5610        6.4793194E-18
   103.7225        6.4803571E-18
   103.8840        6.4811570E-18
   104.0455        6.4822191E-18
   104.2070        6.4836538E-18
   104.3685        6.4850129E-18
   104.5300        6.4855501E-18
   104.6915        6.4847403E-18
   104.8530        6.4826682E-18
   105.0145        6.4800022E-18
   105.1760        6.4775596E-18
   105.3375        6.4757803E-18
   105.4990        6.4744936E-18
   105.6605        6.4731176E-18
   105.8220        6.4711336E-18
   105.9835        6.4684854E-18
   106.1450        6.4656494E-18
   106.3065        6.4633585E-18
   106.4680        6.4621876E-18
   106.6295        6.4622687E-18
   106.7910        6.4632766E-18
   106.9525        6.4646725E-18
   107.1140        6.4660431E-18
   107.2755        6.4673364E-18
   107.4370        6.4688609E-18
   107.5985        6.4710455E-18
   107.7600        6.4740862E-18
   107.9215        6.4777246E-18
   108.0830        6.4813154E-18
   108.2445        6.4841927E-18
   108.4060        6.4860729E-18
   108.5675        6.4871941E-18
   108.7290        6.4880561E-18
   108.8905        6.4889457E-18
   109.0520        6.4896153E-18
   109.2135        6.4894064E-18
   109.3750        6.4877310E-18
   109.5365        6.4845641E-18
   109.6980        6.4805531E-18
   109.8595        6.4766563E-18
   110.0210        6.4735982E-18
   110.1825        6.4715526E-18
   110.3440        6.4702431E-18
   110.5055        6.4693258E-18
   110.6670        6.4687141E-18
   110.8285        6.4686223E-18
   110.9900        6.4693436E-18
   111.1515        6.4709855E-18
   111.3130        6.4733467E-18
   111.4745        6.4759863E-18
   111.6360        6.4784186E-18
   111.7975        6.4803170E-18
   111.9590        6.4816479E-18
   112.1205        6.4826715E-18
   112.2820        6.4837787E-18
   112.4435        6.4851944E-18
   112.6050        6.4867235E-18
   112.7665        6.4877612E-18
   112.9280        6.4876421E-18
   113.0895        6.4861354E-18
   113.2510        6.4836865E-18
   113.4125        6.4811714E-18
   113.5740        6.4792851E-18
   113.7355        6.4780451E-18
   113.8970        6.4768292E-18
   114.0585        6.4749498E-18
   114.2200        6.4722958E-18
   114.3815        6.4695165E-18
   114.5430        6.4675900E-18
   114.7045        6.4671263E-18
   114.8660        6.4679676E-18
   115.0275        6.4693825E-18
   115.1890        6.4706410E-18
   115.3505        6.4715071E-18
   115.5120        6.4722784E-18
   115.6735        6.4734336E-18
   115.8350        6.4751926E-18
   115.9965        6.4773226E-18
   116.1580        6.4792561E-18
   116.3195        6.4803902E-18
   116.4810        6.4803790E-18
   116.6425        6.4792937E-18
   116.8040        6.4776071E-18
   116.9655        6.4759949E-18
   117.1270        6.4750118E-18
   117.2885        6.4747926E-18
   117.4500        6.4749792E-18
   117.6115        6.4749841E-18
   117.7730        6.4744332E-18
   117.9345        6.4734708E-18
   118.0960        6.4726573E-18
   118.2575        6.4725195E-18
   118.4190        6.4731110E-18
   118.5805        6.4739700E-18
   118.7420        6.4745234E-18