  -27.90000       -1.1759416E-18
  -27.73850       -1.1777908E-18
  -27.57700       -1.1805168E-18
  -27.41550       -1.1828400E-18
  -27.25400       -1.1839880E-18
  -27.09250       -1.1841540E-18
  -26.93100       -1.1843096E-18
  -26.76950       -1.1854944E-18
  -26.60800       -1.1880729E-18
  -26.44650       -1.1914508E-18
  -26.28500       -1.1944480E-18
  -26.12350       -1.1960748E-18
  -25.96200       -1.1961881E-18
  -25.80050       -1.1955936E-18
  -25.63900       -1.1955204E-18
  -25.47750       -1.1968137E-18
  -25.31600       -1.1993861E-18
  -25.15450       -1.2022911E-18
  -24.99300       -1.2043691E-18
  -24.83150       -1.2050294E-18
  -24.67000       -1.2046436E-18
  -24.50850       -1.2042866E-18
  -24.34700       -1.2049995E-18
  -24.18550       -1.2070808E-18
  -24.02400       -1.2098822E-18
  -23.86250       -1.2122554E-18
  -23.70100       -1.2133376E-18
  -23.53950       -1.2131380E-18
  -23.37800       -1.2125261E-18
  -23.21650       -1.2126356E-18
  -23.05500       -1.2140888E-18
  -22.89350       -1.2165783E-18
  -22.73200       -1.2190819E-18
  -22.57050       -1.2205605E-18
  -22.40900       -1.2206582E-18
  -22.24750       -1.2199290E-18
  -22.08600       -1.2194531E-18
  -21.92450       -1.2201046E-18
  -21.76300       -1.2219748E-18
  -21.60150       -1.2243301E-18
  -21.44000       -1.2261279E-18
  -21.27850       -1.2267298E-18
  -21.11700       -1.2263405E-18
  -20.95550       -1.2258738E-18
  -20.79400       -1.2263347E-18
  -20.63250       -1.2281345E-18
  -20.47100       -1.2307893E-18
  -20.30950       -1.2332134E-18
  -20.14800       -1.2344275E-18
  -19.98650       -1.2342035E-18
  -19.82500       -1.2332249E-18
  -19.66350       -1.2326349E-18
  -19.50200       -1.2332728E-18
  -19.34050       -1.2351040E-18
  -19.17900       -1.2372528E-18
  -19.01750       -1.2386151E-18
  -18.85600       -1.2386486E-18
  -18.69450       -1.2377838E-18
  -18.53300       -1.2371543E-18
  -18.37150       -1.2378240E-18
  -18.21000       -1.2400349E-18
  -18.04850       -1.2430094E-18
  -17.88700       -1.2454455E-18
  -17.72550       -1.2463817E-18
  -17.56400       -1.2458307E-18
  -17.40250       -1.2447533E-18
  -17.24100       -1.2443913E-18
  -17.07950       -1.2454298E-18
  -16.91800       -1.2475545E-18
  -16.75650       -1.2497004E-18
  -16.59500       -1.2508048E-18
  -16.43350       -1.2505482E-18
  -16.27200       -1.2495840E-18
  -16.11050       -1.2491170E-18
  -15.94900       -1.2501087E-18
  -15.78750       -1.2526378E-18
  -15.62600       -1.2558345E-18
  -15.46450       -1.2584214E-18
  -15.30300       -1.2595195E-18
  -15.14150       -1.2591861E-18
  -14.98000       -1.2583508E-18
  -14.81850       -1.2581866E-18
  -14.65700       -1.2593205E-18
  -14.49550       -1.2614020E-18
  -14.33400       -1.2633261E-18
  -14.17250       -1.2639761E-18
  -14.01100       -1.2630070E-18
  -13.84950       -1.2611213E-18
  -13.68800       -1.2596445E-18
  -13.52650       -1.2596570E-18
  -13.36500       -1.2612748E-18
  -13.20350       -1.2635711E-18
  -13.04200       -1.2652104E-18
  -12.88050       -1.2653745E-18
  -12.71900       -1.2643365E-18
  -12.55750       -1.2632776E-18
  -12.39600       -1.2634726E-18
  -12.23450       -1.2654090E-18
  -12.07300       -1.2684612E-18
  -11.91150       -1.2713284E-18
  -11.75000       -1.2729234E-18
  -11.58850       -1.2730925E-18
  -11.42700       -1.2726719E-18
  -11.26550       -1.2728703E-18
  -11.10400       -1.2744072E-18
  -10.94250       -1.2770098E-18
  -10.78100       -1.2795988E-18
  -10.61950       -1.2810176E-18
  -10.45800       -1.2807997E-18
  -10.29650       -1.2794746E-18
  -10.13500       -1.2782267E-18
  -9.973500       -1.2781391E-18
  -9.812000       -1.2795171E-18
  -9.650500       -1.2817230E-18
  -9.489000       -1.2836246E-18
  -9.327500       -1.2843615E-18
  -9.166000       -1.2839242E-18
  -9.004500       -1.2831588E-18
  -8.843000       -1.2831815E-18
  -8.681500       -1.2845845E-18
  -8.520000       -1.2869753E-18
  -8.358500       -1.2891772E-18
  -8.197000       -1.2899939E-18
  -8.035500       -1.2890326E-18
  -7.874000       -1.2870123E-18
  -7.712500       -1.2853215E-18
  -7.551000       -1.2851028E-18
  -7.389500       -1.2864943E-18
  -7.228000       -1.2885603E-18
  -7.066500       -1.2899753E-18
  -6.905000       -1.2899792E-18
  -6.743500       -1.2889384E-18
  -6.582000       -1.2881019E-18
  -6.420500       -1.2887159E-18
  -6.259000       -1.2911226E-18
  -6.097500       -1.2944861E-18
  -5.936000       -1.2973383E-18
  -5.774500       -1.2985626E-18
  -5.613000       -1.2981367E-18
  -5.451500       -1.2971221E-18
  -5.290000       -1.2969290E-18
  -5.128500       -1.2983665E-18
  -4.967000       -1.3011253E-18
  -4.805500       -1.3040154E-18
  -4.644000       -1.3057738E-18
  -4.482500       -1.3058937E-18
  -4.321000       -1.3049315E-18
  -4.159500       -1.3041131E-18
  -3.998000       -1.3045051E-18
  -3.836500       -1.3062985E-18
  -3.675000       -1.3086658E-18
  -3.513500       -1.3102893E-18
  -3.352000       -1.3102264E-18
  -3.190500       -1.3085611E-18
  -3.029000       -1.3064025E-18
  -2.867500       -1.3052029E-18
  -2.706000       -1.3058060E-18
  -2.544500       -1.3078603E-18
  -2.383000       -1.3100186E-18
  -2.221500       -1.3108277E-18
  -2.060000       -1.3097245E-18
  -1.898500       -1.3074367E-18
  -1.737000       -1.3054853E-18
  -1.575500       -1.3051118E-18
  -1.414000       -1.3063881E-18
  -1.252500       -1.3081598E-18
  -1.091000       -1.3088785E-18
 -0.9295000       -1.3077494E-18
 -0.7680000       -1.3053551E-18
 -0.6065000       -1.3033003E-18
 -0.4450000       -1.3031234E-18
 -0.2835000       -1.3052575E-18
 -0.1220000       -1.3087572E-18
  3.9500002E-02   -1.3119669E-18
  0.2010000       -1.3136310E-18
  0.3625000       -1.3136814E-18
  0.5240000       -1.3131874E-18
  0.6855000       -1.3135444E-18
  0.8470000       -1.3154788E-18
   1.008500       -1.3185452E-18
   1.170000       -1.3214234E-18
   1.331500       -1.3227927E-18
   1.493000       -1.3222113E-18
   1.654500       -1.3204338E-18
   1.816000       -1.3189803E-18
   1.977500       -1.3192056E-18
   2.139000       -1.3214456E-18
   2.300500       -1.3247924E-18
   2.462000       -1.3276738E-18
   2.623500       -1.3288910E-18
   2.785000       -1.3284389E-18
   2.946500       -1.3275328E-18
   3.108000       -1.3277874E-18
   3.269500       -1.3300684E-18
   3.431000       -1.3338140E-18
   3.592500       -1.3373462E-18
   3.754000       -1.3390013E-18
   3.915500       -1.3383135E-18
   4.077000       -1.3363832E-18
   4.238500       -1.3351362E-18
   4.400000       -1.3359662E-18
   4.561500       -1.3387420E-18
   4.723000       -1.3418888E-18
   4.884500       -1.3434890E-18
   5.046000       -1.3426236E-18
   5.207500       -1.3399947E-18
   5.369000       -1.3374061E-18
   5.530500       -1.3364816E-18
   5.692000       -1.3375523E-18
   5.853500       -1.3394776E-18
   6.015000       -1.3404992E-18
   6.176500       -1.3394830E-18
   6.338000       -1.3366938E-18
   6.499500       -1.3335989E-18
   6.661000       -1.3318751E-18
   6.822500       -1.3322995E-18
   6.984000       -1.3342461E-18
   7.145500       -1.3361030E-18
   7.307000       -1.3363371E-18
   7.468500       -1.3345127E-18
   7.630000       -1.3316065E-18
   7.791500       -1.3294060E-18
   7.953000       -1.3293526E-18
   8.114500       -1.3315768E-18
   8.276000       -1.3347812E-18
   8.437500       -1.3371025E-18
   8.599000       -1.3374204E-18
   8.760500       -1.3362193E-18
   8.922000       -1.3353364E-18
   9.083500       -1.3367042E-18
   9.245000       -1.3409242E-18
   9.406500       -1.3467102E-18
   9.568000       -1.3516615E-18
   9.729500       -1.3538703E-18
   9.891000       -1.3532326E-18
   10.05250       -1.3515079E-18
   10.21400       -1.3510497E-18
   10.37550       -1.3531025E-18
   10.53700       -1.3568906E-18
   10.69850       -1.3601663E-18
   10.86000       -1.3608165E-18
   11.02150       -1.3583794E-18
   11.18300       -1.3543928E-18
   11.34450       -1.3513543E-18
   11.50600       -1.3510356E-18
   11.66750       -1.3533201E-18
   11.82900       -1.3563308E-18
   11.99050       -1.3577227E-18
   12.15200       -1.3562471E-18
   12.31350       -1.3525610E-18
   12.47500       -1.3487727E-18
   12.63650       -1.3470579E-18
   12.79800       -1.3482566E-18
   12.95950       -1.3513571E-18
   13.12100       -1.3541890E-18
   13.28250       -1.3548787E-18
   13.44400       -1.3531325E-18
   13.60550       -1.3504913E-18
   13.76700       -1.3493536E-18
   13.92850       -1.3513667E-18
   14.09000       -1.3562524E-18
   14.25150       -1.3619062E-18
   14.41300       -1.3657645E-18
   14.57450       -1.3665349E-18
   14.73600       -1.3650952E-18
   14.89750       -1.3638796E-18
   15.05900       -1.3651426E-18
   15.22050       -1.3693128E-18
   15.38200       -1.3746213E-18
   15.54350       -1.3783112E-18
   15.70500       -1.3785839E-18
   15.86650       -1.3758779E-18
   16.02800       -1.3725398E-18
   16.18950       -1.3711285E-18
   16.35100       -1.3725806E-18
   16.51250       -1.3755580E-18
   16.67400       -1.3774277E-18
   16.83550       -1.3761517E-18
   16.99700       -1.3717488E-18
   17.15850       -1.3663051E-18
   17.32000       -1.3625572E-18
   17.48150       -1.3620566E-18
   17.64300       -1.3641834E-18
   17.80450       -1.3666605E-18
   17.96600       -1.3671722E-18
   18.12750       -1.3649811E-18
   18.28900       -1.3614569E-18
   18.45050       -1.3591816E-18
   18.61200       -1.3602196E-18
   18.77350       -1.3646780E-18
   18.93500       -1.3705293E-18
   19.09650       -1.3748553E-18
   19.25800       -1.3757402E-18
   19.41950       -1.3735517E-18
   19.58100       -1.3707298E-18
   19.74250       -1.3701497E-18
   19.90400       -1.3731151E-18
   20.06550       -1.3783617E-18
   20.22700       -1.3828246E-18
   20.38850       -1.3837357E-18
   20.55000       -1.3806302E-18
   20.71150       -1.3758162E-18
   20.87300       -1.3728761E-18
   21.03450       -1.3742023E-18
   21.19600       -1.3792940E-18
   21.35750       -1.3850566E-18
   21.51900       -1.3879387E-18
   21.68050       -1.3864173E-18
   21.84200       -1.3820737E-18
   22.00350       -1.3784872E-18
   22.16500       -1.3787192E-18
   22.32650       -1.3831717E-18
   22.48800       -1.3893184E-18
   22.64950       -1.3934754E-18
   22.81100       -1.3933419E-18
   22.97250       -1.3895488E-18
   23.13400       -1.3851877E-18
   23.29550       -1.3836930E-18
   23.45700       -1.3865294E-18
   23.61850       -1.3922359E-18
   23.78000       -1.3974259E-18
   23.94150       -1.3990656E-18
   24.10300       -1.3964948E-18
   24.26450       -1.3918619E-18
   24.42600       -1.3886850E-18
   24.58750       -1.3894838E-18
   24.74900       -1.3940434E-18
   24.91050       -1.3994892E-18
   25.07200       -1.4021853E-18
   25.23350       -1.4002340E-18
   25.39500       -1.3948737E-18
   25.55650       -1.3897464E-18
   25.71800       -1.3884379E-18
   25.87950       -1.3919487E-18
   26.04100       -1.3979039E-18
   26.20250       -1.4021381E-18
   26.36400       -1.4016138E-18
   26.52550       -1.3966247E-18
   26.68700       -1.3906731E-18
   26.84850       -1.3880314E-18
   27.01000       -1.3906961E-18
   27.17150       -1.3969228E-18
   27.33300       -1.4024298E-18
   27.49450       -1.4034355E-18
   27.65600       -1.3993538E-18
   27.81750       -1.3932223E-18
   27.97900       -1.3895706E-18
   28.14050       -1.3912480E-18
   28.30200       -1.3974435E-18
   28.46350       -1.4042528E-18
   28.62500       -1.4073620E-18
   28.78650       -1.4049846E-18
   28.94800       -1.3990482E-18
   29.10950       -1.3938683E-18
   29.27100       -1.3932354E-18
   29.43250       -1.3978776E-18
   29.59400       -1.4049824E-18
   29.75550       -1.4100775E-18
   29.91700       -1.4100406E-18
   30.07850       -1.4052477E-18
   30.24000       -1.3994059E-18
   30.40150       -1.3971057E-18
   30.56300       -1.4006712E-18
   30.72450       -1.4084317E-18
   30.88600       -1.4156893E-18
   31.04750       -1.4178458E-18
   31.20900       -1.4135960E-18
   31.37050       -1.4059415E-18
   31.53200       -1.4001960E-18
   31.69350       -1.4002880E-18
   31.85500       -1.4059441E-18
   32.01650       -1.4128131E-18
   32.17800       -1.4155443E-18
   32.33950       -1.4116654E-18
   32.50100       -1.4034681E-18
   32.66250       -1.3964877E-18
   32.82400       -1.3956406E-18
   32.98550       -1.4017687E-18
   33.14700       -1.4110536E-18
   33.30850       -1.4176911E-18
   33.47000       -1.4179150E-18
   33.63150       -1.4125502E-18
   33.79300       -1.4063530E-18
   33.95450       -1.4046530E-18
   34.11600       -1.4096475E-18
   34.27750       -1.4188818E-18
   34.43900       -1.4269161E-18
   34.60050       -1.4290074E-18
   34.76200       -1.4243319E-18
   34.92350       -1.4165918E-18
   35.08500       -1.4115941E-18
   35.24650       -1.4133616E-18
   35.40800       -1.4213517E-18
   35.56950       -1.4306962E-18
   35.73100       -1.4354238E-18
   35.89250       -1.4325675E-18
   36.05400       -1.4243488E-18
   36.21550       -1.4168072E-18
   36.37700       -1.4156969E-18
   36.53850       -1.4224233E-18
   36.70000       -1.4329086E-18
   36.86150       -1.4403183E-18
   37.02300       -1.4398417E-18
   37.18450       -1.4321525E-18
   37.34600       -1.4230180E-18
   37.50750       -1.4192430E-18
   37.66900       -1.4238105E-18
   37.83050       -1.4337060E-18
   37.99200       -1.4419948E-18
   38.15350       -1.4426733E-18
   38.31500       -1.4348670E-18
   38.47650       -1.4234335E-18
   38.63800       -1.4155870E-18
   38.79950       -1.4159378E-18
   38.96100       -1.4233899E-18
   39.12250       -1.4320069E-18
   39.28400       -1.4351849E-18
   39.44550       -1.4302246E-18
   39.60700       -1.4201963E-18
   39.76850       -1.4118548E-18
   39.93000       -1.4110428E-18
   40.09150       -1.4186742E-18
   40.25300       -1.4300280E-18
   40.41450       -1.4378815E-18
   40.57600       -1.4374149E-18
   40.73750       -1.4295521E-18
   40.89900       -1.4203954E-18
   41.06050       -1.4170437E-18
   41.22200       -1.4226292E-18
   41.38350       -1.4340215E-18
   41.54500       -1.4438979E-18
   41.70650       -1.4458350E-18
   41.86800       -1.4388986E-18
   42.02950       -1.4284452E-18
   42.19100       -1.4224560E-18
   42.35250       -1.4259106E-18
   42.51400       -1.4371780E-18
   42.67550       -1.4490430E-18
   42.83700       -1.4537115E-18
   42.99850       -1.4482874E-18
   43.16000       -1.4368471E-18
   43.32150       -1.4276223E-18
   43.48300       -1.4272470E-18
   43.64450       -1.4361027E-18
   43.80600       -1.4480459E-18
   43.96750       -1.4547196E-18
   44.12900       -1.4514318E-18
   44.29050       -1.4404785E-18
   44.45200       -1.4295927E-18
   44.61350       -1.4266069E-18
   44.77500       -1.4340296E-18
   44.93650       -1.4472917E-18
   45.09800       -1.4578570E-18
   45.25950       -1.4590739E-18
   45.42100       -1.4507467E-18
   45.58250       -1.4392893E-18
   45.74400       -1.4333361E-18
   45.90550       -1.4377867E-18
   46.06700       -1.4503688E-18
   46.22850       -1.4630985E-18
   46.39000       -1.4677051E-18
   46.55150       -1.4613307E-18
   46.71300       -1.4485836E-18
   46.87450       -1.4384433E-18
   47.03600       -1.4380564E-18
   47.19750       -1.4476925E-18
   47.35900       -1.4604404E-18
   47.52050       -1.4669677E-18
   47.68200       -1.4620895E-18
   47.84350       -1.4485166E-18
   48.00500       -1.4350690E-18
   48.16650       -1.4305482E-18
   48.32800       -1.4375771E-18
   48.48950       -1.4507780E-18
   48.65100       -1.4605940E-18
   48.81250       -1.4600484E-18
   48.97400       -1.4496463E-18
   49.13550       -1.4369679E-18
   49.29700       -1.4312874E-18
   49.45850       -1.4370456E-18
   49.62000       -1.4507567E-18
   49.78150       -1.4634335E-18
   49.94300       -1.4667856E-18
   50.10450       -1.4588820E-18
   50.26600       -1.4454251E-18
   50.42750       -1.4358142E-18
   50.58900       -1.4367112E-18
   50.75050       -1.4474998E-18
   50.91200       -1.4607380E-18
   51.07350       -1.4673145E-18
   51.23500       -1.4627937E-18
   51.39650       -1.4505864E-18
   51.55800       -1.4396946E-18
   51.71950       -1.4384962E-18
   51.88100       -1.4488371E-18
   52.04250       -1.4645818E-18
   52.20400       -1.4757559E-18
   52.36550       -1.4754666E-18
   52.52700       -1.4647545E-18
   52.68850       -1.4518926E-18
   52.85000       -1.4465806E-18
   53.01150       -1.4531061E-18
   53.17300       -1.4673205E-18
   53.33450       -1.4795669E-18
   53.49600       -1.4814868E-18
   53.65750       -1.4719003E-18
   53.81900       -1.4576427E-18
   53.98050       -1.4487938E-18
   54.14200       -1.4516755E-18
   54.30350       -1.4645053E-18
   54.46500       -1.4786971E-18
   54.62650       -1.4848473E-18
   54.78800       -1.4792299E-18
   54.94950       -1.4663269E-18
   55.11100       -1.4556808E-18
   55.27250       -1.4552687E-18
   55.43400       -1.4659580E-18
   55.59550       -1.4808611E-18
   55.75700       -1.4900469E-18
   55.91850       -1.4873761E-18
   56.08000       -1.4747497E-18
   56.24150       -1.4608223E-18
   56.40300       -1.4550393E-18
   56.56450       -1.4611111E-18
   56.72600       -1.4744283E-18
   56.88750       -1.4852460E-18
   57.04900       -1.4854680E-18
   57.21050       -1.4743390E-18
   57.37200       -1.4590687E-18
   57.53350       -1.4498891E-18
   57.69500       -1.4529559E-18
   57.85650       -1.4660455E-18
   58.01800       -1.4800840E-18
   58.17950       -1.4854737E-18
   58.34100       -1.4787938E-18
   58.50250       -1.4651801E-18
   58.66400       -1.4546881E-18
   58.82550       -1.4552038E-18
   58.98700       -1.4668782E-18
   59.14850       -1.4820225E-18
   59.31000       -1.4905043E-18
   59.47150       -1.4868268E-18
   59.63300       -1.4739131E-18
   59.79450       -1.4609972E-18
   59.95600       -1.4571861E-18
   60.11750       -1.4652165E-18
   60.27900       -1.4797002E-18
   60.44050       -1.4909574E-18
   60.60200       -1.4917178E-18
   60.76350       -1.4820606E-18
   60.92500       -1.4692691E-18
   61.08650       -1.4627641E-18
   61.24800       -1.4676137E-18
   61.40950       -1.4810448E-18
   61.57100       -1.4943126E-18
   61.73250       -1.4986752E-18
   61.89400       -1.4914006E-18
   62.05550       -1.4776804E-18
   62.21700       -1.4670607E-18
   62.37850       -1.4668001E-18
   62.54000       -1.4767700E-18
   62.70150       -1.4895273E-18
   62.86300       -1.4955878E-18
   63.02450       -1.4901828E-18
   63.18600       -1.4766816E-18
   63.34750       -1.4642181E-18
   63.50900       -1.4612404E-18
   63.67050       -1.4695984E-18
   63.83200       -1.4833739E-18
   63.99350       -1.4931970E-18
   64.15500       -1.4928732E-18
   64.31650       -1.4836005E-18
   64.47800       -1.4729057E-18
   64.63950       -1.4692255E-18
   64.80100       -1.4760378E-18
   64.96250       -1.4895641E-18
   65.12400       -1.5014680E-18
   65.28550       -1.5045647E-18
   65.44700       -1.4976378E-18
   65.60850       -1.4861691E-18
   65.77000       -1.4785636E-18
   65.93150       -1.4804314E-18
   66.09300       -1.4907747E-18
   66.25450       -1.5026574E-18
   66.41600       -1.5079616E-18
   66.57750       -1.5030220E-18
   66.73900       -1.4912572E-18
   66.90050       -1.4808845E-18
   67.06200       -1.4792149E-18
   67.22350       -1.4874851E-18
   67.38500       -1.4999229E-18
   67.54650       -1.5077863E-18
   67.70800       -1.5055313E-18
   67.86950       -1.4947008E-18
   68.03100       -1.4827509E-18
   68.19250       -1.4777008E-18
   68.35400       -1.4824920E-18
   68.51550       -1.4930476E-18
   68.67700       -1.5013053E-18
   68.83850       -1.5009496E-18
   69.00000       -1.4917628E-18
   69.16150       -1.4796531E-18
   69.32300       -1.4725043E-18
   69.48450       -1.4748322E-18
   69.64600       -1.4848853E-18
   69.80750       -1.4960247E-18
   69.96900       -1.5012948E-18
   70.13050       -1.4980583E-18
   70.29200       -1.4896390E-18
   70.45350       -1.4829555E-18
   70.61500       -1.4837691E-18
   70.77650       -1.4927107E-18
   70.93800       -1.5047796E-18
   71.09950       -1.5126809E-18
   71.26100       -1.5117944E-18
   71.42250       -1.5033690E-18
   71.58400       -1.4937089E-18
   71.74550       -1.4898401E-18
   71.90700       -1.4946500E-18
   72.06850       -1.5049004E-18
   72.23000       -1.5135583E-18
   72.39150       -1.5148147E-18
   72.55300       -1.5082169E-18
   72.71450       -1.4989582E-18
   72.87600       -1.4941304E-18
   73.03750       -1.4976622E-18
   73.19900       -1.5075671E-18
   73.36050       -1.5174084E-18
   73.52200       -1.5208295E-18
   73.68350       -1.5158896E-18
   73.84500       -1.5062082E-18
   74.00650       -1.4982598E-18
   74.16800       -1.4968498E-18
   74.32950       -1.5019442E-18
   74.49100       -1.5089393E-18
   74.65250       -1.5120056E-18
   74.81400       -1.5081131E-18
   74.97550       -1.4990266E-18
   75.13700       -1.4900503E-18
   75.29850       -1.4864723E-18
   75.46000       -1.4900978E-18
   75.62150       -1.4981273E-18
   75.78300       -1.5050878E-18
   75.94450       -1.5065320E-18
   76.10600       -1.5020415E-18
   76.26750       -1.4955018E-18
   76.42900       -1.4924219E-18
   76.59050       -1.4960923E-18
   76.75200       -1.5052261E-18
   76.91350       -1.5147636E-18
   77.07500       -1.5193343E-18
   77.23650       -1.5169740E-18
   77.39800       -1.5104421E-18
   77.55950       -1.5051747E-18
   77.72100       -1.5053524E-18
   77.88250       -1.5109506E-18
   78.04400       -1.5178821E-18
   78.20550       -1.5210506E-18
   78.36700       -1.5180196E-18
   78.52850       -1.5106587E-18
   78.69000       -1.5037051E-18
   78.85150       -1.5014207E-18
   79.01300       -1.5047833E-18
   79.17450       -1.5110798E-18
   79.33600       -1.5159926E-18
   79.49750       -1.5165628E-18
   79.65900       -1.5130075E-18
   79.82050       -1.5083273E-18
   79.98200       -1.5061560E-18
   80.14350       -1.5083492E-18
   80.30500       -1.5138261E-18
   80.46650       -1.5193080E-18
   80.62800       -1.5214481E-18
   80.78950       -1.5190046E-18
   80.95100       -1.5136755E-18
   81.11250       -1.5090208E-18
   81.27400       -1.5081327E-18
   81.43550       -1.5115775E-18
   81.59700       -1.5170363E-18
   81.75850       -1.5209337E-18
   81.92000       -1.5209609E-18
   82.08150       -1.5177090E-18
   82.24300       -1.5142158E-18
   82.40450       -1.5137499E-18
   82.56600       -1.5174503E-18
   82.72750       -1.5235420E-18
   82.88900       -1.5286390E-18
   83.05050       -1.5301106E-18
   83.21200       -1.5277781E-18
   83.37350       -1.5238180E-18
   83.53500       -1.5211132E-18
   83.69650       -1.5213234E-18
   83.85800       -1.5239666E-18
   84.01950       -1.5269727E-18
   84.18100       -1.5281579E-18
   84.34250       -1.5265999E-18
   84.50400       -1.5231243E-18
   84.66550       -1.5197363E-18
   84.82700       -1.5184277E-18
   84.98850       -1.5200342E-18
   85.15000       -1.5237516E-18
   85.31150       -1.5275880E-18
   85.47300       -1.5295357E-18
   85.63450       -1.5288030E-18
   85.79600       -1.5263174E-18
   85.95750       -1.5241043E-18
   86.11900       -1.5238875E-18
   86.28050       -1.5258454E-18
   86.44200       -1.5284274E-18
   86.60350       -1.5293997E-18
   86.76500       -1.5274074E-18
   86.92650       -1.5229502E-18
   87.08800       -1.5180862E-18
   87.24950       -1.5150756E-18
   87.41100       -1.5149352E-18
   87.57250       -1.5168871E-18
   87.73400       -1.5190087E-18
   87.89550       -1.5195708E-18
   88.05700       -1.5181394E-18
   88.21850       -1.5157730E-18
   88.38000       -1.5142751E-18
   88.54150       -1.5150160E-18
   88.70300       -1.5180546E-18
   88.86450       -1.5220528E-18
   89.02600       -1.5250453E-18
   89.18750       -1.5256194E-18
   89.34900       -1.5238000E-18
   89.51050       -1.5210825E-18
   89.67200       -1.5195311E-18
   89.83350       -1.5204567E-18
   89.99500       -1.5235118E-18
   90.15650       -1.5268482E-18
   90.31800       -1.5283244E-18
   90.47950       -1.5270130E-18
   90.64100       -1.5239537E-18
   90.80250       -1.5215564E-18
   90.96400       -1.5219966E-18
   91.12550       -1.5256865E-18
   91.28700       -1.5309212E-18
   91.44850       -1.5350038E-18
   91.61000       -1.5361032E-18
   91.77150       -1.5345575E-18
   91.93300       -1.5326768E-18
   92.09450       -1.5331335E-18
   92.25600       -1.5370465E-18
   92.41750       -1.5431115E-18
   92.57900       -1.5484150E-18
   92.74050       -1.5503717E-18
   92.90200       -1.5484414E-18
   93.06350       -1.5444549E-18
   93.22500       -1.5413368E-18
   93.38650       -1.5411162E-18
   93.54800       -1.5435771E-18
   93.70950       -1.5464593E-18
   93.87100       -1.5470595E-18
   94.03250       -1.5441511E-18
   94.19400       -1.5389228E-18
   94.35550       -1.5342939E-18
   94.51700       -1.5330316E-18
   94.67850       -1.5358903E-18
   94.84000       -1.5410020E-18
   95.00150       -1.5449893E-18
   95.16300       -1.5451459E-18
   95.32450       -1.5412552E-18
   95.48600       -1.5357750E-18
   95.64750       -1.5321587E-18
   95.80900       -1.5324100E-18
   95.97050       -1.5355932E-18
   96.13200       -1.5384343E-18
   96.29350       -1.5376838E-18
   96.45500       -1.5325917E-18
   96.61650       -1.5256734E-18
   96.77800       -1.5211131E-18
   96.93950       -1.5218823E-18
   97.10100       -1.5276300E-18
   97.26250       -1.5348945E-18
   97.42400       -1.5395000E-18
   97.58550       -1.5394146E-18
   97.74700       -1.5360427E-18
   97.90850       -1.5330745E-18
   98.07000       -1.5337630E-18
   98.23150       -1.5385653E-18
   98.39300       -1.5447839E-18
   98.55450       -1.5484203E-18
   98.71600       -1.5469483E-18
   98.87750       -1.5411092E-18
   99.03900       -1.5345160E-18
   99.20050       -1.5313266E-18
   99.36200       -1.5335244E-18
   99.52350       -1.5396128E-18
   99.68500       -1.5456120E-18
   99.84650       -1.5477358E-18
   100.0080       -1.5449782E-18
   100.1695       -1.5398289E-18
   100.3310       -1.5365630E-18
   100.4925       -1.5382197E-18
   100.6540       -1.5443765E-18
   100.8155       -1.5513399E-18
   100.9770       -1.5546950E-18
   101.1385       -1.5524481E-18
   101.3000       -1.5465120E-18
   101.4615       -1.5414203E-18
   101.6230       -1.5411413E-18
   101.7845       -1.5462446E-18
   101.9460       -1.5534578E-18
   102.1075       -1.5579444E-18
   102.2690       -1.5566718E-18
   102.4305       -1.5504808E-18
   102.5920       -1.5434273E-18
   102.7535       -1.5399169E-18
   102.9150       -1.5416918E-18
   103.0765       -1.5467572E-18
   103.2380       -1.5509323E-18
   103.3995       -1.5508685E-18
   103.5610       -1.5464233E-18
   103.7225       -1.5407684E-18
   103.8840       -1.5382026E-18
   104.0455       -1.5411830E-18
   104.2070       -1.5485999E-18
   104.3685       -1.5564426E-18
   104.5300       -1.5604046E-18
   104.6915       -1.5586819E-18
   104.8530       -1.5531013E-18
   105.0145       -1.5478063E-18
   105.1760       -1.5463933E-18
   105.3375       -1.5494441E-18
   105.4990       -1.5541888E-18
   105.6605       -1.5565585E-18
   105.8220       -1.5541904E-18
   105.9835       -1.5482524E-18
   106.1450       -1.5427382E-18
   106.3065       -1.5417006E-18
   106.4680       -1.5463809E-18
   106.6295       -1.5542847E-18
   106.7910       -1.5608701E-18
   106.9525       -1.5626284E-18
   107.1140       -1.5593608E-18
   107.2755       -1.5540813E-18
   107.4370       -1.5507249E-18
   107.5985       -1.5513770E-18
   107.7600       -1.5549718E-18
   107.9215       -1.5582631E-18
   108.0830       -1.5582489E-18
   108.2445       -1.5543106E-18
   108.4060       -1.5486378E-18
   108.5675       -1.5447389E-18
   108.7290       -1.5451170E-18
   108.8905       -1.5496645E-18
   109.0520       -1.5557875E-18
   109.2135       -1.5601254E-18
   109.3750       -1.5607105E-18
   109.5365       -1.5581714E-18
   109.6980       -1.5552069E-18
   109.8595       -1.5546843E-18
   110.0210       -1.5576390E-18
   110.1825       -1.5625492E-18
   110.3440       -1.5664079E-18
   110.5055       -1.5668530E-18
   110.6670       -1.5638406E-18
   110.8285       -1.5596668E-18
   110.9900       -1.5573143E-18
   111.1515       -1.5583351E-18
   111.3130       -1.5617890E-18
   111.4745       -1.5649652E-18
   111.6360       -1.5653309E-18
   111.7975       -1.5622763E-18
   111.9590       -1.5574548E-18
   112.1205       -1.5535679E-18
   112.2820       -1.5525489E-18
   112.4435       -1.5544041E-18
   112.6050       -1.5574074E-18
   112.7665       -1.5593804E-18
   112.9280       -1.5591312E-18
   113.0895       -1.5571372E-18
   113.2510       -1.5551267E-18
   113.4125       -1.5548864E-18
   113.5740       -1.5570629E-18
   113.7355       -1.5606823E-18
   113.8970       -1.5636838E-18
   114.0585       -1.5641554E-18
   114.2200       -1.5615469E-18
   114.3815       -1.5570889E-18
   114.5430       -1.5531078E-18
   114.7045       -1.5516041E-18
   114.8660       -1.5530043E-18
   115.0275       -1.5559422E-18
   115.1890       -1.5582565E-18
   115.3505       -1.5585369E-18
   115.5120       -1.5571322E-18
   115.6735       -1.5558952E-18
   115.8350       -1.5568480E-18
   115.9965       -1.5607122E-18
   116.1580       -1.5663313E-18
   116.3195       -1.5713677E-18
   116.4810       -1.5737706E-18
   116.6425       -1.5730291E-18
   116.8040       -1.5704048E-18
   116.9655       -1.5680601E-18
   117.1270       -1.5676920E-18
   117.2885       -1.5695311E-18
   117.4500       -1.5722761E-18
   117.6115       -1.5739586E-18
   117.7730       -1.5732244E-18
   117.9345       -1.5702651E-18
   118.0960       -1.5668016E-18
   118.2575       -1.5650539E-18
   118.4190       -1.5662853E-18
   118.5805       -1.5698640E-18
   118.7420       -1.5735552E-18