  -27.90000        9.1671820E-18
  -27.73850        9.1926501E-18
  -27.57700        9.2301114E-18
  -27.41550        9.2618751E-18
  -27.25400        9.2772963E-18
  -27.09250        9.2791508E-18
  -26.93100        9.2809508E-18
  -26.76950        9.2970948E-18
  -26.60800        9.3325362E-18
  -26.44650        9.3789444E-18
  -26.28500        9.4199502E-18
  -26.12350        9.4419292E-18
  -25.96200        9.4430806E-18
  -25.80050        9.4346872E-18
  -25.63900        9.4336988E-18
  -25.47750        9.4515907E-18
  -25.31600        9.4869435E-18
  -25.15450        9.5266457E-18
  -24.99300        9.5548592E-18
  -24.83150        9.5636778E-18
  -24.67000        9.5583317E-18
  -24.50850        9.5534944E-18
  -24.34700        9.5632642E-18
  -24.18550        9.5916125E-18
  -24.02400        9.6297464E-18
  -23.86250        9.6621197E-18
  -23.70100        9.6769833E-18
  -23.53950        9.6743264E-18
  -23.37800        9.6658429E-18
  -23.21650        9.6669728E-18
  -23.05500        9.6864397E-18
  -22.89350        9.7203590E-18
  -22.73200        9.7548773E-18
  -22.57050        9.7755419E-18
  -22.40900        9.7770316E-18
  -22.24750        9.7666795E-18
  -22.08600        9.7594516E-18
  -21.92450        9.7678144E-18
  -21.76300        9.7933974E-18
  -21.60150        9.8260826E-18
  -21.44000        9.8510991E-18
  -21.27850        9.8592567E-18
  -21.11700        9.8533316E-18
  -20.95550        9.8462203E-18
  -20.79400        9.8521115E-18
  -20.63250        9.8766639E-18
  -20.47100        9.9129002E-18
  -20.30950        9.9456516E-18
  -20.14800        9.9616104E-18
  -19.98650        9.9581991E-18
  -19.82500        9.9452504E-18
  -19.66350        9.9383468E-18
  -19.50200        9.9483267E-18
  -19.34050        9.9740652E-18
  -19.17900        1.0003450E-17
  -19.01750        1.0021891E-17
  -18.85600        1.0022576E-17
  -18.69450        1.0011447E-17
  -18.53300        1.0003414E-17
  -18.37150        1.0012300E-17
  -18.21000        1.0041294E-17
  -18.04850        1.0080428E-17
  -17.88700        1.0112879E-17
  -17.72550        1.0125952E-17
  -17.56400        1.0119379E-17
  -17.40250        1.0105350E-17
  -17.24100        1.0100228E-17
  -17.07950        1.0113552E-17
  -16.91800        1.0141712E-17
  -16.75650        1.0170616E-17
  -16.59500        1.0185541E-17
  -16.43350        1.0181484E-17
  -16.27200        1.0166998E-17
  -16.11050        1.0158791E-17
  -15.94900        1.0170689E-17
  -15.78750        1.0204301E-17
  -15.62600        1.0247706E-17
  -15.46450        1.0283081E-17
  -15.30300        1.0298220E-17
  -15.14150        1.0294265E-17
  -14.98000        1.0284523E-17
  -14.81850        1.0285175E-17
  -14.65700        1.0304164E-17
  -14.49550        1.0335708E-17
  -14.33400        1.0364141E-17
  -14.17250        1.0374516E-17
  -14.01100        1.0362812E-17
  -13.84950        1.0338902E-17
  -13.68800        1.0320243E-17
  -13.52650        1.0320495E-17
  -13.36500        1.0340712E-17
  -13.20350        1.0368963E-17
  -13.04200        1.0388647E-17
  -12.88050        1.0389877E-17
  -12.71900        1.0376283E-17
  -12.55750        1.0362684E-17
  -12.39600        1.0365211E-17
  -12.23450        1.0390544E-17
  -12.07300        1.0431490E-17
  -11.91150        1.0471818E-17
  -11.75000        1.0497029E-17
  -11.58850        1.0503770E-17
  -11.42700        1.0501581E-17
  -11.26550        1.0505870E-17
  -11.10400        1.0526954E-17
  -10.94250        1.0562642E-17
  -10.78100        1.0599357E-17
  -10.61950        1.0621049E-17
  -10.45800        1.0619864E-17
  -10.29650        1.0601379E-17
  -10.13500        1.0580930E-17
  -9.973500        1.0573547E-17
  -9.812000        1.0584302E-17
  -9.650500        1.0605520E-17
  -9.489000        1.0622627E-17
  -9.327500        1.0624561E-17
  -9.166000        1.0611626E-17
  -9.004500        1.0595448E-17
  -8.843000        1.0591062E-17
  -8.681500        1.0606541E-17
  -8.520000        1.0637252E-17
  -8.358500        1.0668680E-17
  -8.197000        1.0685973E-17
  -8.035500        1.0683768E-17
  -7.874000        1.0669660E-17
  -7.712500        1.0658963E-17
  -7.551000        1.0664306E-17
  -7.389500        1.0687154E-17
  -7.228000        1.0717006E-17
  -7.066500        1.0738786E-17
  -6.905000        1.0743390E-17
  -6.743500        1.0734098E-17
  -6.582000        1.0724473E-17
  -6.420500        1.0729083E-17
  -6.259000        1.0753376E-17
  -6.097500        1.0789641E-17
  -5.936000        1.0821860E-17
  -5.774500        1.0836254E-17
  -5.613000        1.0830408E-17
  -5.451500        1.0814809E-17
  -5.290000        1.0805728E-17
  -5.128500        1.0814252E-17
  -4.967000        1.0838868E-17
  -4.805500        1.0866608E-17
  -4.644000        1.0882021E-17
  -4.482500        1.0877877E-17
  -4.321000        1.0860374E-17
  -4.159500        1.0845242E-17
  -3.998000        1.0847289E-17
  -3.836500        1.0870417E-17
  -3.675000        1.0904843E-17
  -3.513500        1.0933487E-17
  -3.352000        1.0943308E-17
  -3.190500        1.0934008E-17
  -3.029000        1.0918226E-17
  -2.867500        1.0913048E-17
  -2.706000        1.0928478E-17
  -2.544500        1.0960627E-17
  -2.383000        1.0994223E-17
  -2.221500        1.1012792E-17
  -2.060000        1.1009683E-17
  -1.898500        1.0992519E-17
  -1.737000        1.0978052E-17
  -1.575500        1.0980878E-17
  -1.414000        1.1003587E-17
  -1.252500        1.1035021E-17
  -1.091000        1.1057815E-17
 -0.9295000        1.1060189E-17
 -0.7680000        1.1044044E-17
 -0.6065000        1.1023911E-17
 -0.4450000        1.1017426E-17
 -0.2835000        1.1033708E-17
 -0.1220000        1.1067389E-17
  3.9500002E-02    1.1102269E-17
  0.2010000        1.1122085E-17
  0.3625000        1.1121147E-17
  0.5240000        1.1107717E-17
  0.6855000        1.1097945E-17
  0.8470000        1.1104523E-17
   1.008500        1.1127775E-17
   1.170000        1.1155217E-17
   1.331500        1.1169900E-17
   1.493000        1.1161909E-17
   1.654500        1.1135291E-17
   1.816000        1.1105744E-17
   1.977500        1.1090609E-17
   2.139000        1.1097865E-17
   2.300500        1.1121479E-17
   2.462000        1.1146108E-17
   2.623500        1.1157922E-17
   2.785000        1.1154128E-17
   2.946500        1.1144775E-17
   3.108000        1.1145632E-17
   3.269500        1.1167020E-17
   3.431000        1.1206263E-17
   3.592500        1.1248924E-17
   3.754000        1.1278085E-17
   3.915500        1.1285375E-17
   4.077000        1.1276300E-17
   4.238500        1.1266245E-17
   4.400000        1.1269891E-17
   4.561500        1.1291239E-17
   4.723000        1.1321029E-17
   4.884500        1.1343272E-17
   5.046000        1.1346387E-17
   5.207500        1.1331305E-17
   5.369000        1.1310983E-17
   5.530500        1.1301646E-17
   5.692000        1.1311752E-17
   5.853500        1.1336222E-17
   6.015000        1.1359932E-17
   6.176500        1.1368083E-17
   6.338000        1.1356435E-17
   6.499500        1.1334405E-17
   6.661000        1.1318884E-17
   6.822500        1.1322906E-17
   6.984000        1.1346854E-17
   7.145500        1.1378184E-17
   7.307000        1.1399876E-17
   7.468500        1.1401951E-17
   7.630000        1.1388210E-17
   7.791500        1.1373608E-17
   7.953000        1.1373997E-17
   8.114500        1.1395164E-17
   8.276000        1.1428666E-17
   8.437500        1.1457383E-17
   8.599000        1.1467116E-17
   8.760500        1.1456399E-17
   8.922000        1.1437775E-17
   9.083500        1.1429566E-17
   9.245000        1.1443586E-17
   9.406500        1.1477081E-17
   9.568000        1.1514392E-17
   9.729500        1.1537300E-17
   9.891000        1.1537103E-17
   10.05250        1.1520276E-17
   10.21400        1.1503861E-17
   10.37550        1.1503720E-17
   10.53700        1.1523612E-17
   10.69850        1.1552548E-17
   10.86000        1.1572258E-17
   11.02150        1.1569752E-17
   11.18300        1.1546467E-17
   11.34450        1.1517775E-17
   11.50600        1.1503114E-17
   11.66750        1.1513310E-17
   11.82900        1.1543582E-17
   11.99050        1.1576868E-17
   12.15200        1.1595238E-17
   12.31350        1.1591699E-17
   12.47500        1.1574511E-17
   12.63650        1.1561198E-17
   12.79800        1.1566342E-17
   12.95950        1.1591447E-17
   13.12100        1.1623714E-17
   13.28250        1.1644605E-17
   13.44400        1.1642417E-17
   13.60550        1.1620398E-17
   13.76700        1.1594916E-17
   13.92850        1.1584857E-17
   14.09000        1.1599344E-17
   14.25150        1.1632001E-17
   14.41300        1.1665578E-17
   14.57450        1.1683742E-17
   14.73600        1.1682065E-17
   14.89750        1.1670752E-17
   15.05900        1.1667334E-17
   15.22050        1.1684343E-17
   15.38200        1.1720434E-17
   15.54350        1.1760990E-17
   15.70500        1.1787818E-17
   15.86650        1.1791293E-17
   16.02800        1.1776707E-17
   16.18950        1.1760492E-17
   16.35100        1.1758963E-17
   16.51250        1.1777256E-17
   16.67400        1.1805969E-17
   16.83550        1.1827743E-17
   16.99700        1.1829219E-17
   17.15850        1.1810220E-17
   17.32000        1.1783946E-17
   17.48150        1.1768105E-17
   17.64300        1.1773070E-17
   17.80450        1.1795122E-17
   17.96600        1.1819334E-17
   18.12750        1.1830117E-17
   18.28900        1.1822172E-17
   18.45050        1.1804375E-17
   18.61200        1.1793882E-17
   18.77350        1.1804398E-17
   18.93500        1.1836591E-17
   19.09650        1.1877193E-17
   19.25800        1.1907529E-17
   19.41950        1.1915749E-17
   19.58100        1.1904490E-17
   19.74250        1.1888732E-17
   19.90400        1.1885297E-17
   20.06550        1.1901132E-17
   20.22700        1.1928462E-17
   20.38850        1.1950169E-17
   20.55000        1.1951803E-17
   20.71150        1.1931964E-17
   20.87300        1.1903867E-17
   21.03450        1.1886849E-17
   21.19600        1.1893511E-17
   21.35750        1.1921200E-17
   21.51900        1.1953709E-17
   21.68050        1.1972066E-17
   21.84200        1.1967188E-17
   22.00350        1.1945819E-17
   22.16500        1.1925773E-17
   22.32650        1.1923706E-17
   22.48800        1.1943722E-17
   22.64950        1.1974573E-17
   22.81100        1.1997362E-17
   22.97250        1.1998577E-17
   23.13400        1.1979613E-17
   23.29550        1.1956269E-17
   23.45700        1.1948473E-17
   23.61850        1.1967040E-17
   23.78000        1.2006355E-17
   23.94150        1.2047939E-17
   24.10300        1.2072565E-17
   24.26450        1.2072847E-17
   24.42600        1.2057849E-17
   24.58750        1.2046608E-17
   24.74900        1.2054974E-17
   24.91050        1.2084642E-17
   25.07200        1.2121856E-17
   25.23350        1.2146671E-17
   25.39500        1.2146542E-17
   25.55650        1.2124996E-17
   25.71800        1.2099483E-17
   25.87950        1.2089785E-17
   26.04100        1.2104844E-17
   26.20250        1.2136884E-17
   26.36400        1.2166809E-17
   26.52550        1.2177186E-17
   26.68700        1.2164017E-17
   26.84850        1.2139349E-17
   27.01000        1.2123038E-17
   27.17150        1.2129299E-17
   27.33300        1.2157175E-17
   27.49450        1.2191353E-17
   27.65600        1.2212672E-17
   27.81750        1.2211145E-17
   27.97900        1.2192631E-17
   28.14050        1.2174673E-17
   28.30200        1.2174384E-17
   28.46350        1.2196615E-17
   28.62500        1.2230484E-17
   28.78650        1.2256600E-17
   28.94800        1.2260110E-17
   29.10950        1.2240718E-17
   29.27100        1.2212897E-17
   29.43250        1.2196158E-17
   29.59400        1.2202018E-17
   29.75550        1.2226529E-17
   29.91700        1.2253404E-17
   30.07850        1.2265591E-17
   30.24000        1.2257270E-17
   30.40150        1.2238034E-17
   30.56300        1.2226304E-17
   30.72450        1.2236480E-17
   30.88600        1.2268653E-17
   31.04750        1.2308007E-17
   31.20900        1.2334429E-17
   31.37050        1.2335811E-17
   31.53200        1.2315989E-17
   31.69350        1.2291908E-17
   31.85500        1.2281958E-17
   32.01650        1.2293477E-17
   32.17800        1.2317996E-17
   32.33950        1.2337462E-17
   32.50100        1.2337154E-17
   32.66250        1.2316379E-17
   32.82400        1.2289530E-17
   32.98550        1.2276683E-17
   33.14700        1.2290081E-17
   33.30850        1.2325729E-17
   33.47000        1.2365894E-17
   33.63150        1.2390888E-17
   33.79300        1.2392204E-17
   33.95450        1.2378064E-17
   34.11600        1.2367615E-17
   34.27750        1.2377667E-17
   34.43900        1.2410991E-17
   34.60050        1.2454193E-17
   34.76200        1.2486644E-17
   34.92350        1.2494471E-17
   35.08500        1.2480065E-17
   35.24650        1.2460567E-17
   35.40800        1.2456248E-17
   35.56950        1.2476645E-17
   35.73100        1.2513865E-17
   35.89250        1.2547730E-17
   36.05400        1.2559326E-17
   36.21550        1.2543837E-17
   36.37700        1.2513886E-17
   36.53850        1.2491107E-17
   36.70000        1.2491602E-17
   36.86150        1.2515174E-17
   37.02300        1.2545629E-17
   37.18450        1.2561954E-17
   37.34600        1.2552737E-17
   37.50750        1.2524010E-17
   37.66900        1.2495198E-17
   37.83050        1.2485922E-17
   37.99200        1.2502665E-17
   38.15350        1.2534344E-17
   38.31500        1.2559790E-17
   38.47650        1.2562070E-17
   38.63800        1.2539939E-17
   38.79950        1.2508732E-17
   38.96100        1.2490102E-17
   39.12250        1.2497571E-17
   39.28400        1.2527624E-17
   39.44550        1.2562318E-17
   39.60700        1.2581563E-17
   39.76850        1.2576707E-17
   39.93000        1.2556220E-17
   40.09150        1.2539629E-17
   40.25300        1.2543870E-17
   40.41450        1.2571390E-17
   40.57600        1.2608176E-17
   40.73750        1.2633086E-17
   40.89900        1.2632177E-17
   41.06050        1.2608209E-17
   41.22200        1.2578865E-17
   41.38350        1.2564904E-17
   41.54500        1.2576372E-17
   41.70650        1.2606284E-17
   41.86800        1.2636007E-17
   42.02950        1.2648497E-17
   42.19100        1.2640217E-17
   42.35250        1.2623507E-17
   42.51400        1.2617877E-17
   42.67550        1.2636284E-17
   42.83700        1.2675862E-17
   42.99850        1.2719466E-17
   43.16000        1.2746962E-17
   43.32150        1.2748561E-17
   43.48300        1.2731135E-17
   43.64450        1.2713287E-17
   43.80600        1.2712537E-17
   43.96750        1.2733402E-17
   44.12900        1.2764465E-17
   44.29050        1.2786435E-17
   44.45200        1.2785671E-17
   44.61350        1.2763903E-17
   44.77500        1.2737361E-17
   44.93650        1.2725825E-17
   45.09800        1.2739045E-17
   45.25950        1.2769884E-17
   45.42100        1.2799055E-17
   45.58250        1.2808266E-17
   45.74400        1.2792797E-17
   45.90550        1.2764806E-17
   46.06700        1.2745025E-17
   46.22850        1.2748536E-17
   46.39000        1.2774398E-17
   46.55150        1.2806281E-17
   46.71300        1.2823642E-17
   46.87450        1.2815797E-17
   47.03600        1.2789233E-17
   47.19750        1.2763174E-17
   47.35900        1.2756472E-17
   47.52050        1.2774739E-17
   47.68200        1.2806515E-17
   47.84350        1.2831060E-17
   48.00500        1.2832532E-17
   48.16650        1.2810941E-17
   48.32800        1.2782437E-17
   48.48950        1.2768668E-17
   48.65100        1.2782346E-17
   48.81250        1.2818742E-17
   48.97400        1.2858868E-17
   49.13550        1.2882228E-17
   49.29700        1.2880498E-17
   49.45850        1.2862878E-17
   49.62000        1.2849461E-17
   49.78150        1.2857170E-17
   49.94300        1.2887858E-17
   50.10450        1.2926713E-17
   50.26600        1.2952112E-17
   50.42750        1.2950219E-17
   50.58900        1.2924415E-17
   50.75050        1.2893177E-17
   50.91200        1.2877822E-17
   51.07350        1.2888447E-17
   51.23500        1.2917545E-17
   51.39650        1.2945522E-17
   51.55800        1.2954264E-17
   51.71950        1.2939475E-17
   51.88100        1.2913430E-17
   52.04250        1.2896347E-17
   52.20400        1.2902383E-17
   52.36550        1.2929833E-17
   52.52700        1.2962234E-17
   52.68850        1.2979569E-17
   52.85000        1.2971897E-17
   53.01150        1.2946115E-17
   53.17300        1.2921322E-17
   53.33450        1.2916011E-17
   53.49600        1.2935831E-17
   53.65750        1.2970185E-17
   53.81900        1.2999812E-17
   53.98050        1.3010075E-17
   54.14200        1.3000830E-17
   54.30350        1.2986201E-17
   54.46500        1.2984516E-17
   54.62650        1.3005354E-17
   54.78800        1.3042603E-17
   54.94950        1.3078302E-17
   55.11100        1.3094668E-17
   55.27250        1.3086093E-17
   55.43400        1.3062912E-17
   55.59550        1.3044323E-17
   55.75700        1.3045298E-17
   55.91850        1.3066464E-17
   56.08000        1.3093900E-17
   56.24150        1.3108974E-17
   56.40300        1.3101404E-17
   56.56450        1.3076506E-17
   56.72600        1.3051618E-17
   56.88750        1.3044196E-17
   57.04900        1.3059811E-17
   57.21050        1.3088356E-17
   57.37200        1.3111046E-17
   57.53350        1.3113389E-17
   57.69500        1.3095218E-17
   57.85650        1.3070910E-17
   58.01800        1.3059643E-17
   58.17950        1.3072325E-17
   58.34100        1.3104051E-17
   58.50250        1.3137239E-17
   58.66400        1.3153342E-17
   58.82550        1.3145208E-17
   58.98700        1.3121750E-17
   59.14850        1.3101722E-17
   59.31000        1.3100794E-17
   59.47150        1.3120726E-17
   59.63300        1.3148083E-17
   59.79450        1.3163464E-17
   59.95600        1.3155042E-17
   60.11750        1.3127132E-17
   60.27900        1.3097828E-17
   60.44050        1.3087169E-17
   60.60200        1.3103798E-17
   60.76350        1.3139196E-17
   60.92500        1.3173420E-17
   61.08650        1.3188460E-17
   61.24800        1.3180148E-17
   61.40950        1.3160542E-17
   61.57100        1.3149257E-17
   61.73250        1.3159701E-17
   61.89400        1.3189633E-17
   62.05550        1.3222491E-17
   62.21700        1.3238585E-17
   62.37850        1.3228563E-17
   62.54000        1.3200021E-17
   62.70150        1.3172753E-17
   62.86300        1.3165798E-17
   63.02450        1.3184987E-17
   63.18600        1.3219336E-17
   63.34750        1.3248671E-17
   63.50900        1.3257299E-17
   63.67050        1.3244474E-17
   63.83200        1.3224616E-17
   63.99350        1.3217201E-17
   64.15500        1.3233235E-17
   64.31650        1.3267551E-17
   64.47800        1.3302178E-17
   64.63950        1.3318487E-17
   64.80100        1.3309860E-17
   64.96250        1.3286232E-17
   65.12400        1.3267415E-17
   65.28550        1.3269711E-17
   65.44700        1.3294906E-17
   65.60850        1.3329149E-17
   65.77000        1.3352426E-17
   65.93150        1.3352181E-17
   66.09300        1.3331741E-17
   66.25450        1.3307817E-17
   66.41600        1.3298842E-17
   66.57750        1.3312214E-17
   66.73900        1.3339242E-17
   66.90050        1.3361290E-17
   67.06200        1.3362825E-17
   67.22350        1.3342327E-17
   67.38500        1.3313516E-17
   67.54650        1.3296034E-17
   67.70800        1.3302035E-17
   67.86950        1.3327911E-17
   68.03100        1.3356839E-17
   68.19250        1.3370334E-17
   68.35400        1.3360883E-17
   68.51550        1.3336994E-17
   68.67700        1.3317255E-17
   68.83850        1.3317538E-17
   69.00000        1.3340110E-17
   69.16150        1.3372162E-17
   69.32300        1.3394763E-17
   69.48450        1.3396102E-17
   69.64600        1.3379896E-17
   69.80750        1.3363077E-17
   69.96900        1.3364186E-17
   70.13050        1.3390362E-17
   70.29200        1.3431914E-17
   70.45350        1.3468370E-17
   70.61500        1.3482003E-17
   70.77650        1.3469645E-17
   70.93800        1.3444608E-17
   71.09950        1.3427335E-17
   71.26100        1.3431186E-17
   71.42250        1.3453193E-17
   71.58400        1.3476251E-17
   71.74550        1.3481272E-17
   71.90700        1.3460909E-17
   72.06850        1.3425299E-17
   72.23000        1.3395723E-17
   72.39150        1.3390439E-17
   72.55300        1.3412332E-17
   72.71450        1.3446862E-17
   72.87600        1.3471749E-17
   73.03750        1.3471856E-17
   73.19900        1.3449181E-17
   73.36050        1.3421176E-17
   73.52200        1.3408594E-17
   73.68350        1.3421141E-17
   73.84500        1.3450749E-17
   74.00650        1.3477081E-17
   74.16800        1.3481534E-17
   74.32950        1.3460201E-17
   74.49100        1.3426894E-17
   74.65250        1.3404063E-17
   74.81400        1.3407745E-17
   74.97550        1.3436754E-17
   75.13700        1.3473514E-17
   75.29850        1.3495999E-17
   75.46000        1.3492657E-17
   75.62150        1.3470145E-17
   75.78300        1.3448624E-17
   75.94450        1.3447842E-17
   76.10600        1.3473569E-17
   76.26750        1.3513682E-17
   76.42900        1.3546540E-17
   76.59050        1.3555874E-17
   76.75200        1.3541910E-17
   76.91350        1.3521105E-17
   77.07500        1.3514676E-17
   77.23650        1.3533873E-17
   77.39800        1.3572114E-17
   77.55950        1.3609393E-17
   77.72100        1.3625921E-17
   77.88250        1.3615580E-17
   78.04400        1.3589976E-17
   78.20550        1.3570371E-17
   78.36700        1.3573112E-17
   78.52850        1.3598629E-17
   78.69000        1.3631539E-17
   78.85150        1.3651660E-17
   79.01300        1.3648240E-17
   79.17450        1.3627501E-17
   79.33600        1.3608262E-17
   79.49750        1.3608713E-17
   79.65900        1.3633536E-17
   79.82050        1.3670338E-17
   79.98200        1.3697893E-17
   80.14350        1.3700559E-17
   80.30500        1.3678886E-17
   80.46650        1.3649132E-17
   80.62800        1.3632012E-17
   80.78950        1.3638479E-17
   80.95100        1.3662396E-17
   81.11250        1.3685144E-17
   81.27400        1.3688952E-17
   81.43550        1.3669626E-17
   81.59700        1.3639779E-17
   81.75850        1.3620230E-17
   81.92000        1.3625510E-17
   82.08150        1.3653511E-17
   82.24300        1.3686560E-17
   82.40450        1.3703252E-17
   82.56600        1.3692963E-17
   82.72750        1.3663048E-17
   82.88900        1.3633720E-17
   83.05050        1.3624154E-17
   83.21200        1.3639350E-17
   83.37350        1.3666865E-17
   83.53500        1.3685660E-17
   83.69650        1.3680973E-17
   83.85800        1.3654917E-17
   84.01950        1.3625398E-17
   84.18100        1.3614006E-17
   84.34250        1.3631152E-17
   84.50400        1.3668720E-17
   84.66550        1.3705377E-17
   84.82700        1.3720948E-17
   84.98850        1.3710058E-17
   85.15000        1.3685630E-17
   85.31150        1.3669846E-17
   85.47300        1.3678791E-17
   85.63450        1.3711332E-17
   85.79600        1.3749892E-17
   85.95750        1.3772547E-17
   86.11900        1.3768071E-17
   86.28050        1.3743592E-17
   86.44200        1.3719614E-17
   86.60350        1.3715873E-17
   86.76500        1.3737774E-17
   86.92650        1.3772716E-17
   87.08800        1.3798764E-17
   87.24950        1.3799716E-17
   87.41100        1.3776243E-17
   87.57250        1.3745515E-17
   87.73400        1.3729612E-17
   87.89550        1.3740664E-17
   88.05700        1.3772852E-17
   88.21850        1.3806678E-17
   88.38000        1.3822490E-17
   88.54150        1.3813933E-17
   88.70300        1.3792081E-17
   88.86450        1.3777458E-17
   89.02600        1.3785513E-17
   89.18750        1.3815654E-17
   89.34900        1.3851464E-17
   89.51050        1.3871945E-17
   89.67200        1.3865978E-17
   89.83350        1.3839958E-17
   89.99500        1.3813354E-17
   90.15650        1.3805354E-17
   90.31800        1.3821899E-17
   90.47950        1.3852039E-17
   90.64100        1.3876004E-17
   90.80250        1.3879220E-17
   90.96400        1.3862439E-17
   91.12550        1.3840993E-17
   91.28700        1.3833817E-17
   91.44850        1.3849966E-17
   91.61000        1.3882044E-17
   91.77150        1.3911100E-17
   91.93300        1.3919565E-17
   92.09450        1.3903300E-17
   92.25600        1.3874386E-17
   92.41750        1.3852770E-17
   92.57900        1.3852506E-17
   92.74050        1.3872207E-17
   92.90200        1.3896303E-17
   93.06350        1.3906243E-17
   93.22500        1.3893792E-17
   93.38650        1.3867083E-17
   93.54800        1.3845087E-17
   93.70950        1.3844321E-17
   93.87100        1.3867110E-17
   94.03250        1.3899700E-17
   94.19400        1.3921645E-17
   94.35550        1.3919934E-17
   94.51700        1.3898024E-17
   94.67850        1.3873405E-17
   94.84000        1.3865446E-17
   95.00150        1.3881953E-17
   95.16300        1.3913805E-17
   95.32450        1.3941345E-17
   95.48600        1.3948070E-17
   95.64750        1.3932107E-17
   95.80900        1.3907525E-17
   95.97050        1.3894598E-17
   96.13200        1.3905755E-17
   96.29350        1.3936905E-17
   96.45500        1.3970169E-17
   96.61650        1.3986134E-17
   96.77800        1.3977217E-17
   96.93950        1.3952959E-17
   97.10100        1.3933527E-17
   97.26250        1.3935897E-17
   97.42400        1.3962213E-17
   97.58550        1.3998339E-17
   97.74700        1.4023593E-17
   97.90850        1.4024890E-17
   98.07000        1.4005531E-17
   98.23150        1.3982611E-17
   98.39300        1.3974910E-17
   98.55450        1.3989752E-17
   98.71600        1.4017952E-17
   98.87750        1.4040292E-17
   99.03900        1.4040929E-17
   99.20050        1.4018410E-17
   99.36200        1.3986726E-17
   99.52350        1.3965806E-17
   99.68500        1.3968098E-17
   99.84650        1.3990516E-17
   100.0080        1.4017121E-17
   100.1695        1.4030462E-17
   100.3310        1.4023597E-17
   100.4925        1.4004490E-17
   100.6540        1.3989932E-17
   100.8155        1.3993396E-17
   100.9770        1.4015411E-17
   101.1385        1.4043105E-17
   101.3000        1.4059112E-17
   101.4615        1.4053564E-17
   101.6230        1.4030808E-17
   101.7845        1.4006279E-17
   101.9460        1.3995840E-17
   102.1075        1.4005099E-17
   102.2690        1.4026070E-17
   102.4305        1.4043331E-17
   102.5920        1.4045199E-17
   102.7535        1.4031969E-17
   102.9150        1.4015550E-17
   103.0765        1.4010843E-17
   103.2380        1.4025059E-17
   103.3995        1.4052498E-17
   103.5610        1.4078440E-17
   103.7225        1.4089356E-17
   103.8840        1.4082240E-17
   104.0455        1.4066557E-17
   104.2070        1.4057485E-17
   104.3685        1.4065252E-17
   104.5300        1.4088054E-17
   104.6915        1.4113455E-17
   104.8530        1.4127221E-17
   105.0145        1.4123340E-17
   105.1760        1.4108214E-17
   105.3375        1.4096094E-17
   105.4990        1.4099006E-17
   105.6605        1.4118257E-17
   105.8220        1.4143483E-17
   105.9835        1.4159865E-17
   106.1450        1.4158488E-17
   106.3065        1.4142582E-17
   106.4680        1.4125300E-17
   106.6295        1.4120643E-17
   106.7910        1.4133807E-17
   106.9525        1.4157681E-17
   107.1140        1.4177818E-17
   107.2755        1.4182367E-17
   107.4370        1.4170057E-17
   107.5985        1.4150799E-17
   107.7600        1.4138624E-17
   107.9215        1.4141971E-17
   108.0830        1.4157980E-17
   108.2445        1.4174665E-17
   108.4060        1.4179328E-17
   108.5675        1.4167400E-17
   108.7290        1.4145710E-17
   108.8905        1.4128023E-17
   109.0520        1.4125977E-17
   109.2135        1.4141500E-17
   109.3750        1.4165802E-17
   109.5365        1.4185441E-17
   109.6980        1.4191302E-17
   109.8595        1.4184389E-17
   110.0210        1.4174607E-17
   110.1825        1.4173487E-17
   110.3440        1.4185961E-17
   110.5055        1.4206845E-17
   110.6670        1.4224415E-17
   110.8285        1.4228491E-17
   110.9900        1.4217427E-17
   111.1515        1.4199215E-17
   111.3130        1.4186053E-17
   111.4745        1.4186245E-17
   111.6360        1.4198987E-17
   111.7975        1.4215491E-17
   111.9590        1.4225351E-17
   112.1205        1.4223634E-17
   112.2820        1.4213797E-17
   112.4435        1.4204754E-17
   112.6050        1.4204359E-17
   112.7665        1.4213923E-17
   112.9280        1.4227457E-17
   113.0895        1.4235904E-17
   113.2510        1.4233368E-17
   113.4125        1.4221033E-17
   113.5740        1.4206251E-17
   113.7355        1.4197558E-17
   113.8970        1.4199068E-17
   114.0585        1.4208058E-17
   114.2200        1.4217216E-17
   114.3815        1.4219971E-17
   114.5430        1.4215125E-17
   114.7045        1.4207613E-17
   114.8660        1.4204890E-17
   115.0275        1.4211522E-17
   115.1890        1.4225867E-17
   115.3505        1.4241191E-17
   115.5120        1.4250446E-17
   115.6735        1.4251250E-17
   115.8350        1.4247544E-17
   115.9965        1.4246692E-17
   116.1580        1.4254167E-17
   116.3195        1.4269565E-17
   116.4810        1.4286842E-17
   116.6425        1.4298465E-17
   116.8040        1.4300570E-17
   116.9655        1.4295435E-17
   117.1270        1.4289676E-17
   117.2885        1.4289505E-17
   117.4500        1.4296427E-17
   117.6115        1.4306302E-17
   117.7730        1.4312360E-17
   117.9345        1.4310039E-17
   118.0960        1.4300363E-17
   118.2575        1.4289565E-17
   118.4190        1.4285201E-17
   118.5805        1.4291281E-17
   118.7420        1.4305617E-17