  -27.90000        5.6105589E-18
  -27.73850        5.6116065E-18
  -27.57700        5.6131322E-18
  -27.41550        5.6145430E-18
  -27.25400        5.6157180E-18
  -27.09250        5.6169699E-18
  -26.93100        5.6185767E-18
  -26.76950        5.6204036E-18
  -26.60800        5.6220244E-18
  -26.44650        5.6231850E-18
  -26.28500        5.6240858E-18
  -26.12350        5.6251752E-18
  -25.96200        5.6266616E-18
  -25.80050        5.6282899E-18
  -25.63900        5.6296279E-18
  -25.47750        5.6305498E-18
  -25.31600        5.6313861E-18
  -25.15450        5.6325528E-18
  -24.99300        5.6340810E-18
  -24.83150        5.6355612E-18
  -24.67000        5.6365783E-18
  -24.50850        5.6371647E-18
  -24.34700        5.6377851E-18
  -24.18550        5.6388634E-18
  -24.02400        5.6403519E-18
  -23.86250        5.6417862E-18
  -23.70100        5.6427689E-18
  -23.53950        5.6433669E-18
  -23.37800        5.6440113E-18
  -23.21650        5.6450159E-18
  -23.05500        5.6462389E-18
  -22.89350        5.6472605E-18
  -22.73200        5.6478726E-18
  -22.57050        5.6483325E-18
  -22.40900        5.6490989E-18
  -22.24750        5.6503314E-18
  -22.08600        5.6516942E-18
  -21.92450        5.6526798E-18
  -21.76300        5.6531173E-18
  -21.60150        5.6533423E-18
  -21.44000        5.6538688E-18
  -21.27850        5.6549082E-18
  -21.11700        5.6562230E-18
  -20.95550        5.6574278E-18
  -20.79400        5.6584009E-18
  -20.63250        5.6593485E-18
  -20.47100        5.6604854E-18
  -20.30950        5.6617171E-18
  -20.14800        5.6626998E-18
  -19.98650        5.6632110E-18
  -19.82500        5.6634199E-18
  -19.66350        5.6637354E-18
  -19.50200        5.6644005E-18
  -19.34050        5.6652690E-18
  -19.17900        5.6660127E-18
  -19.01750        5.6665425E-18
  -18.85600        5.6671761E-18
  -18.69450        5.6683569E-18
  -18.53300        5.6701726E-18
  -18.37150        5.6721851E-18
  -18.21000        5.6737617E-18
  -18.04850        5.6746095E-18
  -17.88700        5.6749925E-18
  -17.72550        5.6754227E-18
  -17.56400        5.6761560E-18
  -17.40250        5.6769951E-18
  -17.24100        5.6775469E-18
  -17.07950        5.6776511E-18
  -16.91800        5.6775270E-18
  -16.75650        5.6775287E-18
  -16.59500        5.6777958E-18
  -16.43350        5.6781623E-18
  -16.27200        5.6783873E-18
  -16.11050        5.6784456E-18
  -15.94900        5.6785490E-18
  -15.78750        5.6788989E-18
  -15.62600        5.6794634E-18
  -15.46450        5.6800441E-18
  -15.30300        5.6805533E-18
  -15.14150        5.6811728E-18
  -14.98000        5.6821936E-18
  -14.81850        5.6836994E-18
  -14.65700        5.6854651E-18
  -14.49550        5.6871955E-18
  -14.33400        5.6888714E-18
  -14.17250        5.6908182E-18
  -14.01100        5.6933704E-18
  -13.84950        5.6964513E-18
  -13.68800        5.6995040E-18
  -13.52650        5.7018953E-18
  -13.36500        5.7034438E-18
  -13.20350        5.7045502E-18
  -13.04200        5.7057785E-18
  -12.88050        5.7072853E-18
  -12.71900        5.7086489E-18
  -12.55750        5.7092825E-18
  -12.39600        5.7090211E-18
  -12.23450        5.7083258E-18
  -12.07300        5.7079094E-18
  -11.91150        5.7081406E-18
  -11.75000        5.7087676E-18
  -11.58850        5.7091803E-18
  -11.42700        5.7089239E-18
  -11.26550        5.7079991E-18
  -11.10400        5.7067319E-18
  -10.94250        5.7054431E-18
  -10.78100        5.7042669E-18
  -10.61950        5.7032366E-18
  -10.45800        5.7024256E-18
  -10.29650        5.7019317E-18
  -10.13500        5.7017378E-18
  -9.973500        5.7016923E-18
  -9.812000        5.7016898E-18
  -9.650500        5.7018577E-18
  -9.489000        5.7024678E-18
  -9.327500        5.7036047E-18
  -9.166000        5.7049187E-18
  -9.004500        5.7058067E-18
  -8.843000        5.7059336E-18
  -8.681500        5.7056028E-18
  -8.520000        5.7055535E-18
  -8.358500        5.7063075E-18
  -8.197000        5.7076794E-18
  -8.035500        5.7089698E-18
  -7.874000        5.7096957E-18
  -7.712500        5.7101353E-18
  -7.551000        5.7111143E-18
  -7.389500        5.7132054E-18
  -7.228000        5.7161133E-18
  -7.066500        5.7188583E-18
  -6.905000        5.7205967E-18
  -6.743500        5.7213258E-18
  -6.582000        5.7218209E-18
  -6.420500        5.7229016E-18
  -6.259000        5.7247111E-18
  -6.097500        5.7266586E-18
  -5.936000        5.7280012E-18
  -5.774500        5.7284888E-18
  -5.613000        5.7285066E-18
  -5.451500        5.7287096E-18
  -5.290000        5.7295484E-18
  -5.128500        5.7310646E-18
  -4.967000        5.7329655E-18
  -4.805500        5.7347890E-18
  -4.644000        5.7360542E-18
  -4.482500        5.7364521E-18
  -4.321000        5.7360687E-18
  -4.159500        5.7354615E-18
  -3.998000        5.7353887E-18
  -3.836500        5.7362635E-18
  -3.675000        5.7377631E-18
  -3.513500        5.7390246E-18
  -3.352000        5.7393675E-18
  -3.190500        5.7389563E-18
  -3.029000        5.7387376E-18
  -2.867500        5.7396210E-18
  -2.706000        5.7416145E-18
  -2.544500        5.7437093E-18
  -2.383000        5.7446635E-18
  -2.221500        5.7439906E-18
  -2.060000        5.7423015E-18
  -1.898500        5.7407253E-18
  -1.737000        5.7399705E-18
  -1.575500        5.7398625E-18
  -1.414000        5.7396967E-18
  -1.252500        5.7390072E-18
  -1.091000        5.7380100E-18
 -0.9295000        5.7373578E-18
 -0.7680000        5.7375249E-18
 -0.6065000        5.7384216E-18
 -0.4450000        5.7395490E-18
 -0.2835000        5.7404548E-18
 -0.1220000        5.7410384E-18
  3.9500002E-02    5.7415065E-18
  0.2010000        5.7421158E-18
  0.3625000        5.7429897E-18
  0.5240000        5.7441068E-18
  0.6855000        5.7453678E-18
  0.8470000        5.7466413E-18
   1.008500        5.7477923E-18
   1.170000        5.7487799E-18
   1.331500        5.7497837E-18
   1.493000        5.7511854E-18
   1.654500        5.7532823E-18
   1.816000        5.7559144E-18
   1.977500        5.7583773E-18
   2.139000        5.7598571E-18
   2.300500        5.7600846E-18
   2.462000        5.7596350E-18
   2.623500        5.7595201E-18
   2.785000        5.7603501E-18
   2.946500        5.7617944E-18
   3.108000        5.7628449E-18
   3.269500        5.7627022E-18
   3.431000        5.7615218E-18
   3.592500        5.7603625E-18
   3.754000        5.7603534E-18
   3.915500        5.7618014E-18
   4.077000        5.7639843E-18
   4.238500        5.7657686E-18
   4.400000        5.7664717E-18
   4.561500        5.7662674E-18
   4.723000        5.7659009E-18
   4.884500        5.7660618E-18
   5.046000        5.7669556E-18
   5.207500        5.7683088E-18
   5.369000        5.7696576E-18
   5.530500        5.7706332E-18
   5.692000        5.7710985E-18
   5.853500        5.7711581E-18
   6.015000        5.7711109E-18
   6.176500        5.7713198E-18
   6.338000        5.7719658E-18
   6.499500        5.7728178E-18
   6.661000        5.7732802E-18
   6.822500        5.7728037E-18
   6.984000        5.7713967E-18
   7.145500        5.7697519E-18
   7.307000        5.7687870E-18
   7.468500        5.7689255E-18
   7.630000        5.7697589E-18
   7.791500        5.7704281E-18
   7.953000        5.7704169E-18
   8.114500        5.7700401E-18
   8.276000        5.7701671E-18
   8.437500        5.7714058E-18
   8.599000        5.7735040E-18
   8.760500        5.7755111E-18
   8.922000        5.7765682E-18
   9.083500        5.7765807E-18
   9.245000        5.7761956E-18
   9.406500        5.7761489E-18
   9.568000        5.7766357E-18
   9.729500        5.7772428E-18
   9.891000        5.7774293E-18
   10.05250        5.7770418E-18
   10.21400        5.7764198E-18
   10.37550        5.7760827E-18
   10.53700        5.7763474E-18
   10.69850        5.7771981E-18
   10.86000        5.7784033E-18
   11.02150        5.7796722E-18
   11.18300        5.7807339E-18
   11.34450        5.7814073E-18
   11.50600        5.7817356E-18
   11.66750        5.7820826E-18
   11.82900        5.7829739E-18
   11.99050        5.7846779E-18
   12.15200        5.7868782E-18
   12.31350        5.7888242E-18
   12.47500        5.7899450E-18
   12.63650        5.7904020E-18
   12.79800        5.7910154E-18
   12.95950        5.7925465E-18
   13.12100        5.7949453E-18
   13.28250        5.7972784E-18
   13.44400        5.7984699E-18
   13.60550        5.7982367E-18
   13.76700        5.7973607E-18
   13.92850        5.7970505E-18
   14.09000        5.7979426E-18
   14.25150        5.7996342E-18
   14.41300        5.8011115E-18
   14.57450        5.8016331E-18
   14.73600        5.8012865E-18
   14.89750        5.8008017E-18
   15.05900        5.8008940E-18
   15.22050        5.8017406E-18
   15.38200        5.8029661E-18
   15.54350        5.8040199E-18
   15.70500        5.8045638E-18
   15.86650        5.8045993E-18
   16.02800        5.8043752E-18
   16.18950        5.8042387E-18
   16.35100        5.8045030E-18
   16.51250        5.8052851E-18
   16.67400        5.8063451E-18
   16.83550        5.8071020E-18
   16.99700        5.8069704E-18
   17.15850        5.8058401E-18
   17.32000        5.8042709E-18
   17.48150        5.8031336E-18
   17.64300        5.8028991E-18
   17.80450        5.8031968E-18
   17.96600        5.8030860E-18
   18.12750        5.8018713E-18
   18.28900        5.7997591E-18
   18.45050        5.7977445E-18
   18.61200        5.7968007E-18
   18.77350        5.7970877E-18
   18.93500        5.7979054E-18
   19.09650        5.7984058E-18
   19.25800        5.7983822E-18
   19.41950        5.7983909E-18
   19.58100        5.7991561E-18
   19.74250        5.8008671E-18
   19.90400        5.8030355E-18
   20.06550        5.8049782E-18
   20.22700        5.8064162E-18
   20.38850        5.8076111E-18
   20.55000        5.8090032E-18
   20.71150        5.8107689E-18
   20.87300        5.8127206E-18
   21.03450        5.8145487E-18
   21.19600        5.8160719E-18
   21.35750        5.8172420E-18
   21.51900        5.8180170E-18
   21.68050        5.8183677E-18
   21.84200        5.8184327E-18
   22.00350        5.8185601E-18
   22.16500        5.8190469E-18
   22.32650        5.8197756E-18
   22.48800        5.8202062E-18
   22.64950        5.8198629E-18
   22.81100        5.8189046E-18
   22.97250        5.8181676E-18
   23.13400        5.8184935E-18
   23.29550        5.8198931E-18
   23.45700        5.8213737E-18
   23.61850        5.8216909E-18
   23.78000        5.8204183E-18
   23.94150        5.8183665E-18
   24.10300        5.8169409E-18
   24.26450        5.8170116E-18
   24.42600        5.8182821E-18
   24.58750        5.8196648E-18
   24.74900        5.8202380E-18
   24.91050        5.8199241E-18
   25.07200        5.8193856E-18
   25.23350        5.8193748E-18
   25.39500        5.8201764E-18
   25.55650        5.8215214E-18
   25.71800        5.8228858E-18
   25.87950        5.8238230E-18
   26.04100        5.8241278E-18
   26.20250        5.8238821E-18
   26.36400        5.8234636E-18
   26.52550        5.8234570E-18
   26.68700        5.8243499E-18
   26.84850        5.8261250E-18
   27.01000        5.8281305E-18
   27.17150        5.8294714E-18
   27.33300        5.8297154E-18
   27.49450        5.8292841E-18
   27.65600        5.8291368E-18
   27.81750        5.8299491E-18
   27.97900        5.8315059E-18
   28.14050        5.8328678E-18
   28.30200        5.8331821E-18
   28.46350        5.8324096E-18
   28.62500        5.8313140E-18
   28.78650        5.8307465E-18
   28.94800        5.8308971E-18
   29.10950        5.8312097E-18
   29.27100        5.8309843E-18
   29.43250        5.8300612E-18
   29.59400        5.8289503E-18
   29.75550        5.8283282E-18
   29.91700        5.8284283E-18
   30.07850        5.8288779E-18
   30.24000        5.8290822E-18
   30.40150        5.8287642E-18
   30.56300        5.8281719E-18
   30.72450        5.8278377E-18
   30.88600        5.8281425E-18
   31.04750        5.8290917E-18
   31.20900        5.8304090E-18
   31.37050        5.8317958E-18
   31.53200        5.8331065E-18
   31.69350        5.8343646E-18
   31.85500        5.8357129E-18
   32.01650        5.8373416E-18
   32.17800        5.8393624E-18
   32.33950        5.8416413E-18
   32.50100        5.8437179E-18
   32.66250        5.8449947E-18
   32.82400        5.8451494E-18
   32.98550        5.8444752E-18
   33.14700        5.8437945E-18
   33.30850        5.8439016E-18
   33.47000        5.8449231E-18
   33.63150        5.8461610E-18
   33.79300        5.8466304E-18
   33.95450        5.8458934E-18
   34.11600        5.8444686E-18
   34.27750        5.8434317E-18
   34.43900        5.8435318E-18
   34.60050        5.8445927E-18
   34.76200        5.8457061E-18
   34.92350        5.8460208E-18
   35.08500        5.8454228E-18
   35.24650        5.8445526E-18
   35.40800        5.8442130E-18
   35.56950        5.8447217E-18
   35.73100        5.8457553E-18
   35.89250        5.8467264E-18
   36.05400        5.8472810E-18
   36.21550        5.8474667E-18
   36.37700        5.8475465E-18
   36.53850        5.8477434E-18
   36.70000        5.8481640E-18
   36.86150        5.8488444E-18
   37.02300        5.8497328E-18
   37.18450        5.8505964E-18
   37.34600        5.8510281E-18
   37.50750        5.8506960E-18
   37.66900        5.8496625E-18
   37.83050        5.8484461E-18
   37.99200        5.8476764E-18
   38.15350        5.8475896E-18
   38.31500        5.8478489E-18
   38.47650        5.8479138E-18
   38.63800        5.8476247E-18
   38.79950        5.8474159E-18
   38.96100        5.8478993E-18
   39.12250        5.8492199E-18
   39.28400        5.8508437E-18
   39.44550        5.8520146E-18
   39.60700        5.8524277E-18
   39.76850        5.8524455E-18
   39.93000        5.8526722E-18
   40.09150        5.8533356E-18
   40.25300        5.8541015E-18
   40.41450        5.8544825E-18
   40.57600        5.8543836E-18
   40.73750        5.8542149E-18
   40.89900        5.8544593E-18
   41.06050        5.8551872E-18
   41.22200        5.8560268E-18
   41.38350        5.8565934E-18
   41.54500        5.8568792E-18
   41.70650        5.8571853E-18
   41.86800        5.8577378E-18
   42.02950        5.8584765E-18
   42.19100        5.8592330E-18
   42.35250        5.8600457E-18
   42.51400        5.8611619E-18
   42.67550        5.8626906E-18
   42.83700        5.8643077E-18
   42.99850        5.8654331E-18
   43.16000        5.8658037E-18
   43.32150        5.8658454E-18
   43.48300        5.8663653E-18
   43.64450        5.8677682E-18
   43.80600        5.8695541E-18
   43.96750        5.8706691E-18
   44.12900        5.8704255E-18
   44.29050        5.8691231E-18
   44.45200        5.8677624E-18
   44.61350        5.8671425E-18
   44.77500        5.8671987E-18
   44.93650        5.8671706E-18
   45.09800        5.8663695E-18
   45.25950        5.8648044E-18
   45.42100        5.8631298E-18
   45.58250        5.8620636E-18
   45.74400        5.8618750E-18
   45.90550        5.8623547E-18
   46.06700        5.8631381E-18
   46.22850        5.8639458E-18
   46.39000        5.8645770E-18
   46.55150        5.8648396E-18
   46.71300        5.8646741E-18
   46.87450        5.8643391E-18
   47.03600        5.8643441E-18
   47.19750        5.8650319E-18
   47.35900        5.8661825E-18
   47.52050        5.8671027E-18
   47.68200        5.8672190E-18
   47.84350        5.8666581E-18
   48.00500        5.8662098E-18
   48.16650        5.8666391E-18
   48.32800        5.8679576E-18
   48.48950        5.8693763E-18
   48.65100        5.8700177E-18
   48.81250        5.8697108E-18
   48.97400        5.8690979E-18
   49.13550        5.8689672E-18
   49.29700        5.8694921E-18
   49.45850        5.8701195E-18
   49.62000        5.8701691E-18
   49.78150        5.8695127E-18
   49.94300        5.8686847E-18
   50.10450        5.8683745E-18
   50.26600        5.8688340E-18
   50.42750        5.8697605E-18
   50.58900        5.8706948E-18
   50.75050        5.8714814E-18
   50.91200        5.8723421E-18
   51.07350        5.8735490E-18
   51.23500        5.8750908E-18
   51.39650        5.8766525E-18
   51.55800        5.8778590E-18
   51.71950        5.8784864E-18
   51.88100        5.8784868E-18
   52.04250        5.8779318E-18
   52.20400        5.8770120E-18
   52.36550        5.8760657E-18
   52.52700        5.8754858E-18
   52.68850        5.8754676E-18
   52.85000        5.8758200E-18
   53.01150        5.8760801E-18
   53.17300        5.8759226E-18
   53.33450        5.8755230E-18
   53.49600        5.8754891E-18
   53.65750        5.8763453E-18
   53.81900        5.8780050E-18
   53.98050        5.8797590E-18
   54.14200        5.8808534E-18
   54.30350        5.8811487E-18
   54.46500        5.8812604E-18
   54.62650        5.8820305E-18
   54.78800        5.8838031E-18
   54.94950        5.8861291E-18
   55.11100        5.8881322E-18
   55.27250        5.8891856E-18
   55.43400        5.8893163E-18
   55.59550        5.8890239E-18
   55.75700        5.8887497E-18
   55.91850        5.8884945E-18
   56.08000        5.8879047E-18
   56.24150        5.8866660E-18
   56.40300        5.8848007E-18
   56.56450        5.8826198E-18
   56.72600        5.8804654E-18
   56.88750        5.8785389E-18
   57.04900        5.8769350E-18
   57.21050        5.8757563E-18
   57.37200        5.8751351E-18
   57.53350        5.8751177E-18
   57.69500        5.8755677E-18
   57.85650        5.8762344E-18
   58.01800        5.8769429E-18
   58.17950        5.8777080E-18
   58.34100        5.8786212E-18
   58.50250        5.8796312E-18
   58.66400        5.8804812E-18
   58.82550        5.8809163E-18
   58.98700        5.8809510E-18
   59.14850        5.8808968E-18
   59.31000        5.8810842E-18
   59.47150        5.8815834E-18
   59.63300        5.8822067E-18
   59.79450        5.8828014E-18
   59.95600        5.8834900E-18
   60.11750        5.8845678E-18
   60.27900        5.8861358E-18
   60.44050        5.8878580E-18
   60.60200        5.8891612E-18
   60.76350        5.8897476E-18
   60.92500        5.8898949E-18
   61.08650        5.8902179E-18
   61.24800        5.8910778E-18
   61.40950        5.8922486E-18
   61.57100        5.8931817E-18
   61.73250        5.8935973E-18
   61.89400        5.8937826E-18
   62.05550        5.8943013E-18
   62.21700        5.8954142E-18
   62.37850        5.8967973E-18
   62.54000        5.8978366E-18
   62.70150        5.8981700E-18
   62.86300        5.8979343E-18
   63.02450        5.8974888E-18
   63.18600        5.8969557E-18
   63.34750        5.8960892E-18
   63.50900        5.8945953E-18
   63.67050        5.8925253E-18
   63.83200        5.8902969E-18
   63.99350        5.8883278E-18
   64.15500        5.8867140E-18
   64.31650        5.8852805E-18
   64.47800        5.8839057E-18
   64.63950        5.8827232E-18
   64.80100        5.8819841E-18
   64.96250        5.8817691E-18
   65.12400        5.8819118E-18
   65.28550        5.8822236E-18
   65.44700        5.8827439E-18
   65.60850        5.8836873E-18
   65.77000        5.8851204E-18
   65.93150        5.8867686E-18
   66.09300        5.8882492E-18
   66.25450        5.8895404E-18
   66.41600        5.8911323E-18
   66.57750        5.8935870E-18
   66.73900        5.8968887E-18
   66.90050        5.9002487E-18
   67.06200        5.9026326E-18
   67.22350        5.9035595E-18
   67.38500        5.9034234E-18
   67.54650        5.9030421E-18
   67.70800        5.9028717E-18
   67.86950        5.9026359E-18
   68.03100        5.9016950E-18
   68.19250        5.8997540E-18
   68.35400        5.8972311E-18
   68.51550        5.8949701E-18
   68.67700        5.8936428E-18
   68.83850        5.8933976E-18
   69.00000        5.8939625E-18
   69.16150        5.8949643E-18
   69.32300        5.8961054E-18
   69.48450        5.8971633E-18
   69.64600        5.8979839E-18
   69.80750        5.8985732E-18
   69.96900        5.8991465E-18
   70.13050        5.8999563E-18
   70.29200        5.9009948E-18
   70.45350        5.9018791E-18
   70.61500        5.9021380E-18
   70.77650        5.9016901E-18
   70.93800        5.9010374E-18
   71.09950        5.9009071E-18
   71.26100        5.9016136E-18
   71.42250        5.9027460E-18
   71.58400        5.9035103E-18
   71.74550        5.9034189E-18
   71.90700        5.9026897E-18
   72.06850        5.9019936E-18
   72.23000        5.9018270E-18
   72.39150        5.9021239E-18
   72.55300        5.9024246E-18
   72.71450        5.9023915E-18
   72.87600        5.9021529E-18
   73.03750        5.9021814E-18
   73.19900        5.9028684E-18
   73.36050        5.9041981E-18
   73.52200        5.9057772E-18
   73.68350        5.9071246E-18
   73.84500        5.9079274E-18
   74.00650        5.9081036E-18
   74.16800        5.9077231E-18
   74.32950        5.9069236E-18
   74.49100        5.9058599E-18
   74.65250        5.9046460E-18
   74.81400        5.9032898E-18
   74.97550        5.9017153E-18
   75.13700        5.8999100E-18
   75.29850        5.8980840E-18
   75.46000        5.8966592E-18
   75.62150        5.8960218E-18
   75.78300        5.8962030E-18
   75.94450        5.8967878E-18
   76.10600        5.8971699E-18
   76.26750        5.8970082E-18
   76.42900        5.8964987E-18
   76.59050        5.8962241E-18
   76.75200        5.8966740E-18
   76.91350        5.8978590E-18
   77.07500        5.8993396E-18
   77.23650        5.9006466E-18
   77.39800        5.9017050E-18
   77.55950        5.9029044E-18
   77.72100        5.9047622E-18
   77.88250        5.9074530E-18
   78.04400        5.9106087E-18
   78.20550        5.9135287E-18
   78.36700        5.9156396E-18
   78.52850        5.9168204E-18
   78.69000        5.9173544E-18
   78.85150        5.9176021E-18
   79.01300        5.9176944E-18
   79.17450        5.9174809E-18
   79.33600        5.9167232E-18
   79.49750        5.9153307E-18
   79.65900        5.9134807E-18
   79.82050        5.9115451E-18
   79.98200        5.9099114E-18
   80.14350        5.9088067E-18
   80.30500        5.9082091E-18
   80.46650        5.9078770E-18
   80.62800        5.9074960E-18
   80.78950        5.9068839E-18
   80.95100        5.9061399E-18
   81.11250        5.9056163E-18
   81.27400        5.9056705E-18
   81.43550        5.9063554E-18
   81.59700        5.9073339E-18
   81.75850        5.9081243E-18
   81.92000        5.9085089E-18
   82.08150        5.9087157E-18
   82.24300        5.9091971E-18
   82.40450        5.9101728E-18
   82.56600        5.9113482E-18
   82.72750        5.9120852E-18
   82.88900        5.9118880E-18
   83.05050        5.9107886E-18
   83.21200        5.9092981E-18
   83.37350        5.9079779E-18
   83.53500        5.9070423E-18
   83.69650        5.9063177E-18
   83.85800        5.9055394E-18
   84.01950        5.9046576E-18
   84.18100        5.9038854E-18
   84.34250        5.9034999E-18
   84.50400        5.9036240E-18
   84.66550        5.9041799E-18
   84.82700        5.9049727E-18
   84.98850        5.9057883E-18
   85.15000        5.9064414E-18
   85.31150        5.9068128E-18
   85.47300        5.9069216E-18
   85.63450        5.9069526E-18
   85.79600        5.9071552E-18
   85.95750        5.9076210E-18
   86.11900        5.9081441E-18
   86.28050        5.9083571E-18
   86.44200        5.9080825E-18
   86.60350        5.9075746E-18
   86.76500        5.9073807E-18
   86.92650        5.9078815E-18
   87.08800        5.9089432E-18
   87.24950        5.9100107E-18
   87.41100        5.9105814E-18
   87.57250        5.9106315E-18
   87.73400        5.9106029E-18
   87.89550        5.9109938E-18
   88.05700        5.9119310E-18
   88.21850        5.9131143E-18
   88.38000        5.9141338E-18
   88.54150        5.9148273E-18
   88.70300        5.9153559E-18
   88.86450        5.9159846E-18
   89.02600        5.9168316E-18
   89.18750        5.9178155E-18
   89.34900        5.9187610E-18
   89.51050        5.9195009E-18
   89.67200        5.9198794E-18
   89.83350        5.9197503E-18
   89.99500        5.9190737E-18
   90.15650        5.9180273E-18
   90.31800        5.9169859E-18
   90.47950        5.9162960E-18
   90.64100        5.9160338E-18
   90.80250        5.9159655E-18
   90.96400        5.9157889E-18
   91.12550        5.9154291E-18
   91.28700        5.9151045E-18
   91.44850        5.9150929E-18
   91.61000        5.9154399E-18
   91.77150        5.9159019E-18
   91.93300        5.9161893E-18
   92.09450        5.9162348E-18
   92.25600        5.9162207E-18
   92.41750        5.9163696E-18
   92.57900        5.9167257E-18
   92.74050        5.9171406E-18
   92.90200        5.9174462E-18
   93.06350        5.9175930E-18
   93.22500        5.9176294E-18
   93.38650        5.9175604E-18
   93.54800        5.9172708E-18
   93.70950        5.9165975E-18
   93.87100        5.9154597E-18
   94.03250        5.9139088E-18
   94.19400        5.9120451E-18
   94.35550        5.9099383E-18
   94.51700        5.9076441E-18
   94.67850        5.9053028E-18
   94.84000        5.9031604E-18
   95.00150        5.9014510E-18
   95.16300        5.9002499E-18
   95.32450        5.8994732E-18
   95.48600        5.8990369E-18
   95.64750        5.8990315E-18
   95.80900        5.8997172E-18
   95.97050        5.9013249E-18
   96.13200        5.9038258E-18
   96.29350        5.9068719E-18
   96.45500        5.9099730E-18
   96.61650        5.9127710E-18
   96.77800        5.9152083E-18
   96.93950        5.9174818E-18
   97.10100        5.9198388E-18
   97.26250        5.9223812E-18
   97.42400        5.9249731E-18
   97.58550        5.9272892E-18
   97.74700        5.9289655E-18
   97.90850        5.9297972E-18
   98.07000        5.9298688E-18
   98.23150        5.9295086E-18
   98.39300        5.9290619E-18
   98.55450        5.9286433E-18
   98.71600        5.9280552E-18
   98.87750        5.9269608E-18
   99.03900        5.9251932E-18
   99.20050        5.9229730E-18
   99.36200        5.9208459E-18
   99.52350        5.9193582E-18
   99.68500        5.9187039E-18
   99.84650        5.9186076E-18
   100.0080        5.9185476E-18
   100.1695        5.9181303E-18
   100.3310        5.9173523E-18
   100.4925        5.9165562E-18
   100.6540        5.9161463E-18
   100.8155        5.9162662E-18
   100.9770        5.9166674E-18
   101.1385        5.9168709E-18
   101.3000        5.9165181E-18
   101.4615        5.9156334E-18
   101.6230        5.9145883E-18
   101.7845        5.9137971E-18
   101.9460        5.9133889E-18
   102.1075        5.9131234E-18
   102.2690        5.9126250E-18
   102.4305        5.9117316E-18
   102.5920        5.9106910E-18
   102.7535        5.9100218E-18
   102.9150        5.9101488E-18
   103.0765        5.9110939E-18
   103.2380        5.9124720E-18
   103.3995        5.9137925E-18
   103.5610        5.9148125E-18
   103.7225        5.9156760E-18
   103.8840        5.9167584E-18
   104.0455        5.9183350E-18
   104.2070        5.9203198E-18
   104.3685        5.9222563E-18
   104.5300        5.9235864E-18
   104.6915        5.9240401E-18
   104.8530        5.9238502E-18
   105.0145        5.9236066E-18
   105.1760        5.9238143E-18
   105.3375        5.9244855E-18
   105.4990        5.9250732E-18
   105.6605        5.9248449E-18
   105.8220        5.9234366E-18
   105.9835        5.9211801E-18
   106.1450        5.9189053E-18
   106.3065        5.9173540E-18
   106.4680        5.9166554E-18
   106.6295        5.9162989E-18
   106.7910        5.9156223E-18
   106.9525        5.9144216E-18
   107.1140        5.9131895E-18
   107.2755        5.9128065E-18
   107.4370        5.9139228E-18
   107.5985        5.9164858E-18
   107.7600        5.9197557E-18
   107.9215        5.9227877E-18
   108.0830        5.9250252E-18
   108.2445        5.9265758E-18
   108.4060        5.9279915E-18
   108.5675        5.9297451E-18
   108.7290        5.9317721E-18
   108.8905        5.9334306E-18
   109.0520        5.9339224E-18
   109.2135        5.9328839E-18
   109.3750        5.9307233E-18
   109.5365        5.9284076E-18
   109.6980        5.9268215E-18
   109.8595        5.9261564E-18
   110.0210        5.9258115E-18
   110.1825        5.9248801E-18
   110.3440        5.9228671E-18
   110.5055        5.9200828E-18
   110.6670        5.9174235E-18
   110.8285        5.9156938E-18
   110.9900        5.9150180E-18
   111.1515        5.9147839E-18
   111.3130        5.9141842E-18
   111.4745        5.9129091E-18
   111.6360        5.9114553E-18
   111.7975        5.9107986E-18
   111.9590        5.9116597E-18
   112.1205        5.9139278E-18
   112.2820        5.9166691E-18
   112.4435        5.9187312E-18
   112.6050        5.9194997E-18
   112.7665        5.9192461E-18
   112.9280        5.9188073E-18
   113.0895        5.9188549E-18
   113.2510        5.9193285E-18
   113.4125        5.9194881E-18
   113.5740        5.9185505E-18
   113.7355        5.9164164E-18
   113.8970        5.9138881E-18
   114.0585        5.9121878E-18
   114.2200        5.9121117E-18
   114.3815        5.9134761E-18
   114.5430        5.9152773E-18
   114.7045        5.9164726E-18
   114.8660        5.9167687E-18
   115.0275        5.9168192E-18
   115.1890        5.9176551E-18
   115.3505        5.9198028E-18
   115.5120        5.9227861E-18
   115.6735        5.9254144E-18
   115.8350        5.9266680E-18
   115.9965        5.9264856E-18
   116.1580        5.9258557E-18
   116.3195        5.9260907E-18
   116.4810        5.9278273E-18
   116.6425        5.9304991E-18
   116.8040        5.9327044E-18
   116.9655        5.9332023E-18
   117.1270        5.9317978E-18
   117.2885        5.9294407E-18
   117.4500        5.9274782E-18
   117.6115        5.9266225E-18
   117.7730        5.9264286E-18
   117.9345        5.9256845E-18
   118.0960        5.9234230E-18
   118.2575        5.9198041E-18
   118.4190        5.9161595E-18
   118.5805        5.9141350E-18
   118.7420        5.9145552E-18