  -27.90000        9.3240667E-18
  -27.73850        9.3517491E-18
  -27.57700        9.3903652E-18
  -27.41550        9.4190378E-18
  -27.25400        9.4275338E-18
  -27.09250        9.4229735E-18
  -26.93100        9.4236783E-18
  -26.76950        9.4448169E-18
  -26.60800        9.4865581E-18
  -26.44650        9.5334857E-18
  -26.28500        9.5656672E-18
  -26.12350        9.5731573E-18
  -25.96200        9.5632452E-18
  -25.80050        9.5551380E-18
  -25.63900        9.5660311E-18
  -25.47750        9.5987808E-18
  -25.31600        9.6401415E-18
  -25.15450        9.6707547E-18
  -24.99300        9.6794500E-18
  -24.83150        9.6713684E-18
  -24.67000        9.6640032E-18
  -24.50850        9.6741676E-18
  -24.34700        9.7055227E-18
  -24.18550        9.7458693E-18
  -24.02400        9.7761854E-18
  -23.86250        9.7847219E-18
  -23.70100        9.7757214E-18
  -23.53950        9.7663056E-18
  -23.37800        9.7737932E-18
  -23.21650        9.8028422E-18
  -23.05500        9.8419463E-18
  -22.89350        9.8719266E-18
  -22.73200        9.8801257E-18
  -22.57050        9.8697809E-18
  -22.40900        9.8575833E-18
  -22.24750        9.8612486E-18
  -22.08600        9.8863742E-18
  -21.92450        9.9223789E-18
  -21.76300        9.9505435E-18
  -21.60150        9.9581437E-18
  -21.44000        9.9481174E-18
  -21.27850        9.9370249E-18
  -21.11700        9.9427887E-18
  -20.95550        9.9712950E-18
  -20.79400        1.0011801E-17
  -20.63250        1.0044607E-17
  -20.47100        1.0055342E-17
  -20.30950        1.0045367E-17
  -20.14800        1.0030636E-17
  -19.98650        1.0029853E-17
  -19.82500        1.0050677E-17
  -19.66350        1.0084165E-17
  -19.50200        1.0111560E-17
  -19.34050        1.0118446E-17
  -19.17900        1.0105778E-17
  -19.01750        1.0089562E-17
  -18.85600        1.0089328E-17
  -18.69450        1.0113811E-17
  -18.53300        1.0154397E-17
  -18.37150        1.0191184E-17
  -18.21000        1.0207268E-17
  -18.04850        1.0200771E-17
  -17.88700        1.0185857E-17
  -17.72550        1.0182015E-17
  -17.56400        1.0199603E-17
  -17.40250        1.0232250E-17
  -17.24100        1.0261716E-17
  -17.07950        1.0271560E-17
  -16.91800        1.0259562E-17
  -16.75650        1.0239737E-17
  -16.59500        1.0232462E-17
  -16.43350        1.0249868E-17
  -16.27200        1.0287168E-17
  -16.11050        1.0326215E-17
  -15.94900        1.0348694E-17
  -15.78750        1.0349270E-17
  -15.62600        1.0339103E-17
  -15.46450        1.0337169E-17
  -15.30300        1.0355858E-17
  -15.14150        1.0391513E-17
  -14.98000        1.0426941E-17
  -14.81850        1.0444051E-17
  -14.65700        1.0437229E-17
  -14.49550        1.0417518E-17
  -14.33400        1.0404499E-17
  -14.17250        1.0411951E-17
  -14.01100        1.0437929E-17
  -13.84950        1.0466561E-17
  -13.68800        1.0480129E-17
  -13.52650        1.0472369E-17
  -13.36500        1.0453174E-17
  -13.20350        1.0441304E-17
  -13.04200        1.0450625E-17
  -12.88050        1.0480072E-17
  -12.71900        1.0514667E-17
  -12.55750        1.0536742E-17
  -12.39600        1.0538996E-17
  -12.23450        1.0529790E-17
  -12.07300        1.0526785E-17
  -11.91150        1.0543620E-17
  -11.75000        1.0579467E-17
  -11.58850        1.0619172E-17
  -11.42700        1.0643972E-17
  -11.26550        1.0645001E-17
  -11.10400        1.0629634E-17
  -10.94250        1.0615997E-17
  -10.78100        1.0619607E-17
  -10.61950        1.0642006E-17
  -10.45800        1.0669810E-17
  -10.29650        1.0684924E-17
  -10.13500        1.0678389E-17
  -9.973500        1.0657560E-17
  -9.812000        1.0641175E-17
  -9.650500        1.0645830E-17
  -9.489000        1.0673770E-17
  -9.327500        1.0711030E-17
  -9.166000        1.0737406E-17
  -9.004500        1.0741009E-17
  -8.843000        1.0726775E-17
  -8.681500        1.0712654E-17
  -8.520000        1.0716262E-17
  -8.358500        1.0741775E-17
  -8.197000        1.0776752E-17
  -8.035500        1.0801316E-17
  -7.874000        1.0802985E-17
  -7.712500        1.0786216E-17
  -7.551000        1.0769517E-17
  -7.389500        1.0772099E-17
  -7.228000        1.0799817E-17
  -7.066500        1.0840780E-17
  -6.905000        1.0873921E-17
  -6.743500        1.0884272E-17
  -6.582000        1.0873740E-17
  -6.420500        1.0859441E-17
  -6.259000        1.0860861E-17
  -6.097500        1.0885336E-17
  -5.936000        1.0922573E-17
  -5.774500        1.0952227E-17
  -5.613000        1.0958952E-17
  -5.451500        1.0943803E-17
  -5.290000        1.0923626E-17
  -5.128500        1.0918845E-17
  -4.967000        1.0938607E-17
  -4.805500        1.0974150E-17
  -4.644000        1.1005278E-17
  -4.482500        1.1015204E-17
  -4.321000        1.1002882E-17
  -4.159500        1.0983751E-17
  -3.998000        1.0978306E-17
  -3.836500        1.0996896E-17
  -3.675000        1.1031962E-17
  -3.513500        1.1063556E-17
  -3.352000        1.1074105E-17
  -3.190500        1.1061517E-17
  -3.029000        1.1040805E-17
  -2.867500        1.1032909E-17
  -2.706000        1.1048977E-17
  -2.544500        1.1081843E-17
  -2.383000        1.1111200E-17
  -2.221500        1.1118675E-17
  -2.060000        1.1101608E-17
  -1.898500        1.1075192E-17
  -1.737000        1.1061323E-17
  -1.575500        1.1072444E-17
  -1.414000        1.1102492E-17
  -1.252500        1.1131693E-17
  -1.091000        1.1141643E-17
 -0.9295000        1.1129338E-17
 -0.7680000        1.1109630E-17
 -0.6065000        1.1104200E-17
 -0.4450000        1.1125219E-17
 -0.2835000        1.1165903E-17
 -0.1220000        1.1205043E-17
  3.9500002E-02    1.1222292E-17
  0.2010000        1.1212906E-17
  0.3625000        1.1191051E-17
  0.5240000        1.1179151E-17
  0.6855000        1.1191159E-17
  0.8470000        1.1222167E-17
   1.008500        1.1252155E-17
   1.170000        1.1261169E-17
   1.331500        1.1244683E-17
   1.493000        1.1217593E-17
   1.654500        1.1203691E-17
   1.816000        1.1218281E-17
   1.977500        1.1256828E-17
   2.139000        1.1298142E-17
   2.300500        1.1319865E-17
   2.462000        1.1314846E-17
   2.623500        1.1296227E-17
   2.785000        1.1287450E-17
   2.946500        1.1304606E-17
   3.108000        1.1344236E-17
   3.269500        1.1385708E-17
   3.431000        1.1406422E-17
   3.592500        1.1398589E-17
   3.754000        1.1375101E-17
   3.915500        1.1360101E-17
   4.077000        1.1371181E-17
   4.238500        1.1406368E-17
   4.400000        1.1445568E-17
   4.561500        1.1465402E-17
   4.723000        1.1456481E-17
   4.884500        1.1430332E-17
   5.046000        1.1410839E-17
   5.207500        1.1416548E-17
   5.369000        1.1446980E-17
   5.530500        1.1483126E-17
   5.692000        1.1501736E-17
   5.853500        1.1492742E-17
   6.015000        1.1466790E-17
   6.176500        1.1447281E-17
   6.338000        1.1452882E-17
   6.499500        1.1483593E-17
   6.661000        1.1520745E-17
   6.822500        1.1540903E-17
   6.984000        1.1533247E-17
   7.145500        1.1507489E-17
   7.307000        1.1486505E-17
   7.468500        1.1489272E-17
   7.630000        1.1516911E-17
   7.791500        1.1552168E-17
   7.953000        1.1572609E-17
   8.114500        1.1567558E-17
   8.276000        1.1546120E-17
   8.437500        1.1530322E-17
   8.599000        1.1538530E-17
   8.760500        1.1571514E-17
   8.922000        1.1611593E-17
   9.083500        1.1635524E-17
   9.245000        1.1631581E-17
   9.406500        1.1608131E-17
   9.568000        1.1587324E-17
   9.729500        1.1588596E-17
   9.891000        1.1614258E-17
   10.05250        1.1647962E-17
   10.21400        1.1667215E-17
   10.37550        1.1660593E-17
   10.53700        1.1636721E-17
   10.69850        1.1618158E-17
   10.86000        1.1624661E-17
   11.02150        1.1658296E-17
   11.18300        1.1701578E-17
   11.34450        1.1730148E-17
   11.50600        1.1730583E-17
   11.66750        1.1710122E-17
   11.82900        1.1691036E-17
   11.99050        1.1693861E-17
   12.15200        1.1722015E-17
   12.31350        1.1759253E-17
   12.47500        1.1781857E-17
   12.63650        1.1776457E-17
   12.79800        1.1750204E-17
   12.95950        1.1725742E-17
   13.12100        1.1724662E-17
   13.28250        1.1751695E-17
   13.44400        1.1791291E-17
   13.60550        1.1819117E-17
   13.76700        1.1819985E-17
   13.92850        1.1798952E-17
   14.09000        1.1777471E-17
   14.25150        1.1777447E-17
   14.41300        1.1805044E-17
   14.57450        1.1846168E-17
   14.73600        1.1876952E-17
   14.89750        1.1881408E-17
   15.05900        1.1863172E-17
   15.22050        1.1842646E-17
   15.38200        1.1841693E-17
   15.54350        1.1867298E-17
   15.70500        1.1906320E-17
   15.86650        1.1935210E-17
   16.02800        1.1937420E-17
   16.18950        1.1915605E-17
   16.35100        1.1889587E-17
   16.51250        1.1881693E-17
   16.67400        1.1900385E-17
   16.83550        1.1934340E-17
   16.99700        1.1961304E-17
   17.15850        1.1964989E-17
   17.32000        1.1947356E-17
   17.48150        1.1927099E-17
   17.64300        1.1925506E-17
   17.80450        1.1950325E-17
   17.96600        1.1989728E-17
   18.12750        1.2020923E-17
   18.28900        1.2026958E-17
   18.45050        1.2009179E-17
   18.61200        1.1986020E-17
   18.77350        1.1979097E-17
   18.93500        1.1997089E-17
   19.09650        1.2029463E-17
   19.25800        1.2054693E-17
   19.41950        1.2056709E-17
   19.58100        1.2037205E-17
   19.74250        1.2014544E-17
   19.90400        1.2010067E-17
   20.06550        1.2032066E-17
   20.22700        1.2069387E-17
   20.38850        1.2099515E-17
   20.55000        1.2105139E-17
   20.71150        1.2086895E-17
   20.87300        1.2062803E-17
   21.03450        1.2054806E-17
   21.19600        1.2072422E-17
   21.35750        1.2105687E-17
   21.51900        1.2132694E-17
   21.68050        1.2136139E-17
   21.84200        1.2116494E-17
   22.00350        1.2091893E-17
   22.16500        1.2084754E-17
   22.32650        1.2105052E-17
   22.48800        1.2142801E-17
   22.64950        1.2175345E-17
   22.81100        1.2184068E-17
   22.97250        1.2168078E-17
   23.13400        1.2144688E-17
   23.29550        1.2136402E-17
   23.45700        1.2154158E-17
   23.61850        1.2189298E-17
   23.78000        1.2220177E-17
   23.94150        1.2228377E-17
   24.10300        1.2212426E-17
   24.26450        1.2188862E-17
   24.42600        1.2179921E-17
   24.58750        1.2197045E-17
   24.74900        1.2232429E-17
   24.91050        1.2264856E-17
   25.07200        1.2275426E-17
   25.23350        1.2261487E-17
   25.39500        1.2238452E-17
   25.55650        1.2228254E-17
   25.71800        1.2243085E-17
   25.87950        1.2276525E-17
   26.04100        1.2308586E-17
   26.20250        1.2320787E-17
   26.36400        1.2309916E-17
   26.52550        1.2290215E-17
   26.68700        1.2282465E-17
   26.84850        1.2298241E-17
   27.01000        1.2331189E-17
   27.17150        1.2361759E-17
   27.33300        1.2371743E-17
   27.49450        1.2357692E-17
   27.65600        1.2333275E-17
   27.81750        1.2318977E-17
   27.97900        1.2326958E-17
   28.14050        1.2352390E-17
   28.30200        1.2377597E-17
   28.46350        1.2385717E-17
   28.62500        1.2373560E-17
   28.78650        1.2354029E-17
   28.94800        1.2346409E-17
   29.10950        1.2361830E-17
   29.27100        1.2394820E-17
   29.43250        1.2427206E-17
   29.59400        1.2441446E-17
   29.75550        1.2433405E-17
   29.91700        1.2415099E-17
   30.07850        1.2405430E-17
   30.24000        1.2415940E-17
   30.40150        1.2442265E-17
   30.56300        1.2467618E-17
   30.72450        1.2475607E-17
   30.88600        1.2462737E-17
   31.04750        1.2441199E-17
   31.20900        1.2429888E-17
   31.37050        1.2440366E-17
   31.53200        1.2468270E-17
   31.69350        1.2496535E-17
   31.85500        1.2508034E-17
   32.01650        1.2498170E-17
   32.17800        1.2478150E-17
   32.33950        1.2466542E-17
   32.50100        1.2475489E-17
   32.66250        1.2501800E-17
   32.82400        1.2529483E-17
   32.98550        1.2541789E-17
   33.14700        1.2533748E-17
   33.30850        1.2515914E-17
   33.47000        1.2506529E-17
   33.63150        1.2517972E-17
   33.79300        1.2547521E-17
   33.95450        1.2579274E-17
   34.11600        1.2595770E-17
   34.27750        1.2590725E-17
   34.43900        1.2573476E-17
   34.60050        1.2561904E-17
   34.76200        1.2569153E-17
   34.92350        1.2594030E-17
   35.08500        1.2622155E-17
   35.24650        1.2636890E-17
   35.40800        1.2631826E-17
   35.56950        1.2615503E-17
   35.73100        1.2604957E-17
   35.89250        1.2612969E-17
   36.05400        1.2638560E-17
   36.21550        1.2667754E-17
   36.37700        1.2683955E-17
   36.53850        1.2680116E-17
   36.70000        1.2663708E-17
   36.86150        1.2650914E-17
   37.02300        1.2654547E-17
   37.18450        1.2674707E-17
   37.34600        1.2699066E-17
   37.50750        1.2712366E-17
   37.66900        1.2707952E-17
   37.83050        1.2692664E-17
   37.99200        1.2681542E-17
   38.15350        1.2686388E-17
   38.31500        1.2706833E-17
   38.47650        1.2730550E-17
   38.63800        1.2742396E-17
   38.79950        1.2735567E-17
   38.96100        1.2716496E-17
   39.12250        1.2699915E-17
   39.28400        1.2697908E-17
   39.44550        1.2711168E-17
   39.60700        1.2728935E-17
   39.76850        1.2737520E-17
   39.93000        1.2730927E-17
   40.09150        1.2715572E-17
   40.25300        1.2705606E-17
   40.41450        1.2712353E-17
   40.57600        1.2735749E-17
   40.73750        1.2764179E-17
   40.89900        1.2782879E-17
   41.06050        1.2784664E-17
   41.22200        1.2775034E-17
   41.38350        1.2767816E-17
   41.54500        1.2774644E-17
   41.70650        1.2796158E-17
   41.86800        1.2821544E-17
   42.02950        1.2836778E-17
   42.19100        1.2835325E-17
   42.35250        1.2823210E-17
   42.51400        1.2814581E-17
   42.67550        1.2821105E-17
   42.83700        1.2843209E-17
   42.99850        1.2869764E-17
   43.16000        1.2886386E-17
   43.32150        1.2886064E-17
   43.48300        1.2874151E-17
   43.64450        1.2864113E-17
   43.80600        1.2867393E-17
   43.96750        1.2885020E-17
   44.12900        1.2907122E-17
   44.29050        1.2920557E-17
   44.45200        1.2918798E-17
   44.61350        1.2906746E-17
   44.77500        1.2896977E-17
   44.93650        1.2900367E-17
   45.09800        1.2918046E-17
   45.25950        1.2940593E-17
   45.42100        1.2954973E-17
   45.58250        1.2954025E-17
   45.74400        1.2941569E-17
   45.90550        1.2929400E-17
   46.06700        1.2928516E-17
   46.22850        1.2941112E-17
   46.39000        1.2959273E-17
   46.55150        1.2971215E-17
   46.71300        1.2970309E-17
   46.87450        1.2960079E-17
   47.03600        1.2951475E-17
   47.19750        1.2954548E-17
   47.35900        1.2970826E-17
   47.52050        1.2992145E-17
   47.68200        1.3006720E-17
   47.84350        1.3007854E-17
   48.00500        1.2998702E-17
   48.16650        1.2989662E-17
   48.32800        1.2990498E-17
   48.48950        1.3003186E-17
   48.65100        1.3020789E-17
   48.81250        1.3033051E-17
   48.97400        1.3034323E-17
   49.13550        1.3027837E-17
   49.29700        1.3023123E-17
   49.45850        1.3028641E-17
   49.62000        1.3045204E-17
   49.78150        1.3065192E-17
   49.94300        1.3078089E-17
   50.10450        1.3078163E-17
   50.26600        1.3068525E-17
   50.42750        1.3058584E-17
   50.58900        1.3056893E-17
   50.75050        1.3064870E-17
   50.91200        1.3076122E-17
   51.07350        1.3081792E-17
   51.23500        1.3077713E-17
   51.39650        1.3067824E-17
   51.55800        1.3061274E-17
   51.71950        1.3065511E-17
   51.88100        1.3080694E-17
   52.04250        1.3099608E-17
   52.20400        1.3113053E-17
   52.36550        1.3116516E-17
   52.52700        1.3113125E-17
   52.68850        1.3110871E-17
   52.85000        1.3116410E-17
   53.01150        1.3130173E-17
   53.17300        1.3146294E-17
   53.33450        1.3157178E-17
   53.49600        1.3159164E-17
   53.65750        1.3155120E-17
   53.81900        1.3152205E-17
   53.98050        1.3156559E-17
   54.14200        1.3168839E-17
   54.30350        1.3183813E-17
   54.46500        1.3194240E-17
   54.62650        1.3196155E-17
   54.78800        1.3191715E-17
   54.94950        1.3187574E-17
   55.11100        1.3190010E-17
   55.27250        1.3200429E-17
   55.43400        1.3214544E-17
   55.59550        1.3225781E-17
   55.75700        1.3230277E-17
   55.91850        1.3229644E-17
   56.08000        1.3229461E-17
   56.24150        1.3234753E-17
   56.40300        1.3246014E-17
   56.56450        1.3258793E-17
   56.72600        1.3267068E-17
   56.88750        1.3267716E-17
   57.04900        1.3262693E-17
   57.21050        1.3257383E-17
   57.37200        1.3256582E-17
   57.53350        1.3261221E-17
   57.69500        1.3268206E-17
   57.85650        1.3273228E-17
   58.01800        1.3274196E-17
   58.17950        1.3272690E-17
   58.34100        1.3272505E-17
   58.50250        1.3276575E-17
   58.66400        1.3284689E-17
   58.82550        1.3293643E-17
   58.98700        1.3299573E-17
   59.14850        1.3300667E-17
   59.31000        1.3298245E-17
   59.47150        1.3295580E-17
   59.63300        1.3295487E-17
   59.79450        1.3298498E-17
   59.95600        1.3302871E-17
   60.11750        1.3306247E-17
   60.27900        1.3307602E-17
   60.44050        1.3308037E-17
   60.60200        1.3309899E-17
   60.76350        1.3315001E-17
   60.92500        1.3323275E-17
   61.08650        1.3332816E-17
   61.24800        1.3341192E-17
   61.40950        1.3346999E-17
   61.57100        1.3350621E-17
   61.73250        1.3353725E-17
   61.89400        1.3357987E-17
   62.05550        1.3363953E-17
   62.21700        1.3370810E-17
   62.37850        1.3377115E-17
   62.54000        1.3381905E-17
   62.70150        1.3385364E-17
   62.86300        1.3388662E-17
   63.02450        1.3393110E-17
   63.18600        1.3399262E-17
   63.34750        1.3406575E-17
   63.50900        1.3413820E-17
   63.67050        1.3419939E-17
   63.83200        1.3424744E-17
   63.99350        1.3428964E-17
   64.15500        1.3433662E-17
   64.31650        1.3439483E-17
   64.47800        1.3446232E-17
   64.63950        1.3453056E-17
   64.80100        1.3459002E-17
   64.96250        1.3463542E-17
   65.12400        1.3466740E-17
   65.28550        1.3469012E-17
   65.44700        1.3470768E-17
   65.60850        1.3472192E-17
   65.77000        1.3473247E-17
   65.93150        1.3473801E-17
   66.09300        1.3473763E-17
   66.25450        1.3473220E-17
   66.41600        1.3472568E-17
   66.57750        1.3472556E-17
   66.73900        1.3474091E-17
   66.90050        1.3477787E-17
   67.06200        1.3483522E-17
   67.22350        1.3490352E-17
   67.38500        1.3496984E-17
   67.54650        1.3502545E-17
   67.70800        1.3507087E-17
   67.86950        1.3511380E-17
   68.03100        1.3516100E-17
   68.19250        1.3521056E-17
   68.35400        1.3525171E-17
   68.51550        1.3527299E-17
   68.67700        1.3527305E-17
   68.83850        1.3526491E-17
   69.00000        1.3526967E-17
   69.16150        1.3530341E-17
   69.32300        1.3536695E-17
   69.48450        1.3544631E-17
   69.64600        1.3552382E-17
   69.80750        1.3559115E-17
   69.96900        1.3565429E-17
   70.13050        1.3572652E-17
   70.29200        1.3581535E-17
   70.45350        1.3591369E-17
   70.61500        1.3600274E-17
   70.77650        1.3606425E-17
   70.93800        1.3609327E-17
   71.09950        1.3610152E-17
   71.26100        1.3610906E-17
   71.42250        1.3613041E-17
   71.58400        1.3616541E-17
   71.74550        1.3620090E-17
   71.90700        1.3622148E-17
   72.06850        1.3622120E-17
   72.23000        1.3620810E-17
   72.39150        1.3619870E-17
   72.55300        1.3620680E-17
   72.71450        1.3623391E-17
   72.87600        1.3626839E-17
   73.03750        1.3629376E-17
   73.19900        1.3630084E-17
   73.36050        1.3629516E-17
   73.52200        1.3629376E-17
   73.68350        1.3631308E-17
   73.84500        1.3635622E-17
   74.00650        1.3640899E-17
   74.16800        1.3644876E-17
   74.32950        1.3646031E-17
   74.49100        1.3644695E-17
   74.65250        1.3642804E-17
   74.81400        1.3642463E-17
   74.97550        1.3644429E-17
   75.13700        1.3647702E-17
   75.29850        1.3650542E-17
   75.46000        1.3652079E-17
   75.62150        1.3653213E-17
   75.78300        1.3656099E-17
   75.94450        1.3662580E-17
   76.10600        1.3672796E-17
   76.26750        1.3684998E-17
   76.42900        1.3696678E-17
   76.59050        1.3706139E-17
   76.75200        1.3713363E-17
   76.91350        1.3719674E-17
   77.07500        1.3726513E-17
   77.23650        1.3734289E-17
   77.39800        1.3742092E-17
   77.55950        1.3748442E-17
   77.72100        1.3752513E-17
   77.88250        1.3754937E-17
   78.04400        1.3757565E-17
   78.20550        1.3762338E-17
   78.36700        1.3770018E-17
   78.52850        1.3779675E-17
   78.69000        1.3789307E-17
   78.85150        1.3797156E-17
   79.01300        1.3802796E-17
   79.17450        1.3807189E-17
   79.33600        1.3811704E-17
   79.49750        1.3816882E-17
   79.65900        1.3821922E-17
   79.82050        1.3825267E-17
   79.98200        1.3825837E-17
   80.14350        1.3823938E-17
   80.30500        1.3821188E-17
   80.46650        1.3819533E-17
   80.62800        1.3820048E-17
   80.78950        1.3822391E-17
   80.95100        1.3825216E-17
   81.11250        1.3827245E-17
   81.27400        1.3828218E-17
   81.43550        1.3829068E-17
   81.59700        1.3831235E-17
   81.75850        1.3835553E-17
   81.92000        1.3841497E-17
   82.08150        1.3847370E-17
   82.24300        1.3851375E-17
   82.40450        1.3852868E-17
   82.56600        1.3852824E-17
   82.72750        1.3853099E-17
   82.88900        1.3854944E-17
   83.05050        1.3857926E-17
   83.21200        1.3860140E-17
   83.37350        1.3859637E-17
   83.53500        1.3856008E-17
   83.69650        1.3850889E-17
   83.85800        1.3846924E-17
   84.01950        1.3845987E-17
   84.18100        1.3848005E-17
   84.34250        1.3851273E-17
   84.50400        1.3853947E-17
   84.66550        1.3855552E-17
   84.82700        1.3857367E-17
   84.98850        1.3861466E-17
   85.15000        1.3869150E-17
   85.31150        1.3879877E-17
   85.47300        1.3891411E-17
   85.63450        1.3901060E-17
   85.79600        1.3907197E-17
   85.95750        1.3910102E-17
   86.11900        1.3911596E-17
   86.28050        1.3913722E-17
   86.44200        1.3917355E-17
   86.60350        1.3921670E-17
   86.76500        1.3924886E-17
   86.92650        1.3925804E-17
   87.08800        1.3925026E-17
   87.24950        1.3924854E-17
   87.41100        1.3927854E-17
   87.57250        1.3935080E-17
   87.73400        1.3945276E-17
   87.89550        1.3955692E-17
   88.05700        1.3963912E-17
   88.21850        1.3969365E-17
   88.38000        1.3973383E-17
   88.54150        1.3977897E-17
   88.70300        1.3983748E-17
   88.86450        1.3990001E-17
   89.02600        1.3994702E-17
   89.18750        1.3996462E-17
   89.34900        1.3995643E-17
   89.51050        1.3994228E-17
   89.67200        1.3994511E-17
   89.83350        1.3997587E-17
   89.99500        1.4002692E-17
   90.15650        1.4007910E-17
   90.31800        1.4011654E-17
   90.47950        1.4013864E-17
   90.64100        1.4015978E-17
   90.80250        1.4019735E-17
   90.96400        1.4025698E-17
   91.12550        1.4032677E-17
   91.28700        1.4038537E-17
   91.44850        1.4041808E-17
   91.61000        1.4042873E-17
   91.77150        1.4043785E-17
   91.93300        1.4046741E-17
   92.09450        1.4052353E-17
   92.25600        1.4059073E-17
   92.41750        1.4064259E-17
   92.57900        1.4066168E-17
   92.74050        1.4065330E-17
   92.90200        1.4064276E-17
   93.06350        1.4065761E-17
   93.22500        1.4070757E-17
   93.38650        1.4077739E-17
   93.54800        1.4083814E-17
   93.70950        1.4086907E-17
   93.87100        1.4087395E-17
   94.03250        1.4087890E-17
   94.19400        1.4091285E-17
   94.35550        1.4098461E-17
   94.51700        1.4107347E-17
   94.67850        1.4114118E-17
   94.84000        1.4115783E-17
   95.00150        1.4112300E-17
   95.16300        1.4106670E-17
   95.32450        1.4102852E-17
   95.48600        1.4103031E-17
   95.64750        1.4106212E-17
   95.80900        1.4109258E-17
   95.97050        1.4109554E-17
   96.13200        1.4107281E-17
   96.29350        1.4105557E-17
   96.45500        1.4108249E-17
   96.61650        1.4117037E-17
   96.77800        1.4129980E-17
   96.93950        1.4142678E-17
   97.10100        1.4151212E-17
   97.26250        1.4154713E-17
   97.42400        1.4155620E-17
   97.58550        1.4157529E-17
   97.74700        1.4162277E-17
   97.90850        1.4168520E-17
   98.07000        1.4172866E-17
   98.23150        1.4172689E-17
   98.39300        1.4168419E-17
   98.55450        1.4163484E-17
   98.71600        1.4161916E-17
   98.87750        1.4165448E-17
   99.03900        1.4172342E-17
   99.20050        1.4178832E-17
   99.36200        1.4182028E-17
   99.52350        1.4182051E-17
   99.68500        1.4181775E-17
   99.84650        1.4184414E-17
   100.0080        1.4190854E-17
   100.1695        1.4198846E-17
   100.3310        1.4204685E-17
   100.4925        1.4206041E-17
   100.6540        1.4203785E-17
   100.8155        1.4201326E-17
   100.9770        1.4202011E-17
   101.1385        1.4206528E-17
   101.3000        1.4212321E-17
   101.4615        1.4215517E-17
   101.6230        1.4213962E-17
   101.7845        1.4209067E-17
   101.9460        1.4204969E-17
   102.1075        1.4205520E-17
   102.2690        1.4211386E-17
   102.4305        1.4219493E-17
   102.5920        1.4225367E-17
   102.7535        1.4226655E-17
   102.9150        1.4225085E-17
   103.0765        1.4225247E-17
   103.2380        1.4230956E-17
   103.3995        1.4241999E-17
   103.5610        1.4253923E-17
   103.7225        1.4261174E-17
   103.8840        1.4261236E-17
   104.0455        1.4256564E-17
   104.2070        1.4252777E-17
   104.3685        1.4254449E-17
   104.5300        1.4261753E-17
   104.6915        1.4270540E-17
   104.8530        1.4275771E-17
   105.0145        1.4275653E-17
   105.1760        1.4273258E-17
   105.3375        1.4274342E-17
   105.4990        1.4283019E-17
   105.6605        1.4298573E-17
   105.8220        1.4315772E-17
   105.9835        1.4328461E-17
   106.1450        1.4333786E-17
   106.3065        1.4333938E-17
   106.4680        1.4334165E-17
   106.6295        1.4338572E-17
   106.7910        1.4346912E-17
   106.9525        1.4354806E-17
   107.1140        1.4357261E-17
   107.2755        1.4352752E-17
   107.4370        1.4344680E-17
   107.5985        1.4339067E-17
   107.7600        1.4340152E-17
   107.9215        1.4347319E-17
   108.0830        1.4355693E-17
   108.2445        1.4359981E-17
   108.4060        1.4358545E-17
   108.5675        1.4354520E-17
   108.7290        1.4353124E-17
   108.8905        1.4357356E-17
   109.0520        1.4365498E-17
   109.2135        1.4372384E-17
   109.3750        1.4373449E-17
   109.5365        1.4368370E-17
   109.6980        1.4361465E-17
   109.8595        1.4358443E-17
   110.0210        1.4361990E-17
   110.1825        1.4369633E-17
   110.3440        1.4375602E-17
   110.5055        1.4375345E-17
   110.6670        1.4369208E-17
   110.8285        1.4362393E-17
   110.9900        1.4361061E-17
   111.1515        1.4367510E-17
   111.3130        1.4378174E-17
   111.4745        1.4386208E-17
   111.6360        1.4386812E-17
   111.7975        1.4381190E-17
   111.9590        1.4375876E-17
   112.1205        1.4377726E-17
   112.2820        1.4388416E-17
   112.4435        1.4402741E-17
   112.6050        1.4412247E-17
   112.7665        1.4411519E-17
   112.9280        1.4402321E-17
   113.0895        1.4392316E-17
   113.2510        1.4389267E-17
   113.4125        1.4395168E-17
   113.5740        1.4404842E-17
   113.7355        1.4410112E-17
   113.8970        1.4406340E-17
   114.0585        1.4396301E-17
   114.2200        1.4388387E-17
   114.3815        1.4390428E-17
   114.5430        1.4403795E-17
   114.7045        1.4422197E-17
   114.8660        1.4436171E-17
   115.0275        1.4439930E-17
   115.1890        1.4435428E-17
   115.3505        1.4430561E-17
   115.5120        1.4432889E-17
   115.6735        1.4443695E-17
   115.8350        1.4456942E-17
   115.9965        1.4463986E-17
   116.1580        1.4460479E-17
   116.3195        1.4450093E-17
   116.4810        1.4442066E-17
   116.6425        1.4444332E-17
   116.8040        1.4457494E-17
   116.9655        1.4474379E-17
   117.1270        1.4485557E-17
   117.2885        1.4486575E-17
   117.4500        1.4481274E-17
   117.6115        1.4478587E-17
   117.7730        1.4485292E-17
   117.9345        1.4500367E-17
   118.0960        1.4515488E-17
   118.2575        1.4521374E-17
   118.4190        1.4515121E-17
   118.5805        1.4502738E-17
   118.7420        1.4494744E-17