  -27.90000       -1.8309384E-18
  -27.73850       -1.8338892E-18
  -27.57700       -1.8380239E-18
  -27.41550       -1.8411241E-18
  -27.25400       -1.8420715E-18
  -27.09250       -1.8415869E-18
  -26.93100       -1.8416190E-18
  -26.76950       -1.8438238E-18
  -26.60800       -1.8482637E-18
  -26.44650       -1.8532953E-18
  -26.28500       -1.8567399E-18
  -26.12350       -1.8574878E-18
  -25.96200       -1.8563304E-18
  -25.80050       -1.8553922E-18
  -25.63900       -1.8565703E-18
  -25.47750       -1.8601470E-18
  -25.31600       -1.8646094E-18
  -25.15450       -1.8678067E-18
  -24.99300       -1.8685650E-18
  -24.83150       -1.8675505E-18
  -24.67000       -1.8667456E-18
  -24.50850       -1.8679482E-18
  -24.34700       -1.8714229E-18
  -24.18550       -1.8757193E-18
  -24.02400       -1.8787662E-18
  -23.86250       -1.8794187E-18
  -23.70100       -1.8783024E-18
  -23.53950       -1.8773348E-18
  -23.37800       -1.8783003E-18
  -23.21650       -1.8815305E-18
  -23.05500       -1.8856655E-18
  -22.89350       -1.8886672E-18
  -22.73200       -1.8893248E-18
  -22.57050       -1.8881427E-18
  -22.40900       -1.8869549E-18
  -22.24750       -1.8875652E-18
  -22.08600       -1.8904080E-18
  -21.92450       -1.8942376E-18
  -21.76300       -1.8970732E-18
  -21.60150       -1.8976936E-18
  -21.44000       -1.8965705E-18
  -21.27850       -1.8955328E-18
  -21.11700       -1.8964096E-18
  -20.95550       -1.8996567E-18
  -20.79400       -1.9039971E-18
  -20.63250       -1.9073383E-18
  -20.47100       -1.9082918E-18
  -20.30950       -1.9071743E-18
  -20.14800       -1.9057447E-18
  -19.98650       -1.9058899E-18
  -19.82500       -1.9082337E-18
  -19.66350       -1.9116996E-18
  -19.50200       -1.9143400E-18
  -19.34050       -1.9148077E-18
  -19.17900       -1.9133854E-18
  -19.01750       -1.9118146E-18
  -18.85600       -1.9120420E-18
  -18.69450       -1.9148032E-18
  -18.53300       -1.9190671E-18
  -18.37150       -1.9227594E-18
  -18.21000       -1.9242432E-18
  -18.04850       -1.9234789E-18
  -17.88700       -1.9220199E-18
  -17.72550       -1.9218375E-18
  -17.56400       -1.9238391E-18
  -17.40250       -1.9271840E-18
  -17.24100       -1.9299174E-18
  -17.07950       -1.9304663E-18
  -16.91800       -1.9288673E-18
  -16.75650       -1.9267946E-18
  -16.59500       -1.9263496E-18
  -16.43350       -1.9285269E-18
  -16.27200       -1.9325088E-18
  -16.11050       -1.9363078E-18
  -15.94900       -1.9382527E-18
  -15.78750       -1.9381857E-18
  -15.62600       -1.9374909E-18
  -15.46450       -1.9379744E-18
  -15.30300       -1.9404673E-18
  -15.14150       -1.9441981E-18
  -14.98000       -1.9473726E-18
  -14.81850       -1.9484936E-18
  -14.65700       -1.9474454E-18
  -14.49550       -1.9455669E-18
  -14.33400       -1.9446801E-18
  -14.17250       -1.9457927E-18
  -14.01100       -1.9484022E-18
  -13.84950       -1.9509096E-18
  -13.68800       -1.9518323E-18
  -13.52650       -1.9509319E-18
  -13.36500       -1.9494157E-18
  -13.20350       -1.9490460E-18
  -13.04200       -1.9508176E-18
  -12.88050       -1.9542001E-18
  -12.71900       -1.9575403E-18
  -12.55750       -1.9593243E-18
  -12.39600       -1.9593404E-18
  -12.23450       -1.9588292E-18
  -12.07300       -1.9595148E-18
  -11.91150       -1.9622631E-18
  -11.75000       -1.9664050E-18
  -11.58850       -1.9702311E-18
  -11.42700       -1.9722531E-18
  -11.26550       -1.9722620E-18
  -11.10400       -1.9714034E-18
  -10.94250       -1.9712514E-18
  -10.78100       -1.9726128E-18
  -10.61950       -1.9749549E-18
  -10.45800       -1.9768566E-18
  -10.29650       -1.9771174E-18
  -10.13500       -1.9756899E-18
  -9.973500       -1.9737446E-18
  -9.812000       -1.9728334E-18
  -9.650500       -1.9737712E-18
  -9.489000       -1.9760658E-18
  -9.327500       -1.9783122E-18
  -9.166000       -1.9792389E-18
  -9.004500       -1.9786224E-18
  -8.843000       -1.9773862E-18
  -8.681500       -1.9768345E-18
  -8.520000       -1.9776385E-18
  -8.358500       -1.9793543E-18
  -8.197000       -1.9808190E-18
  -8.035500       -1.9810732E-18
  -7.874000       -1.9800905E-18
  -7.712500       -1.9787728E-18
  -7.551000       -1.9782707E-18
  -7.389500       -1.9791723E-18
  -7.228000       -1.9811695E-18
  -7.066500       -1.9833758E-18
  -6.905000       -1.9850056E-18
  -6.743500       -1.9858944E-18
  -6.582000       -1.9865224E-18
  -6.420500       -1.9875843E-18
  -6.259000       -1.9894556E-18
  -6.097500       -1.9919396E-18
  -5.936000       -1.9944468E-18
  -5.774500       -1.9964354E-18
  -5.613000       -1.9977857E-18
  -5.451500       -1.9988377E-18
  -5.290000       -2.0001000E-18
  -5.128500       -2.0018575E-18
  -4.967000       -2.0039933E-18
  -4.805500       -2.0061245E-18
  -4.644000       -2.0079123E-18
  -4.482500       -2.0092877E-18
  -4.321000       -2.0104250E-18
  -4.159500       -2.0115335E-18
  -3.998000       -2.0126828E-18
  -3.836500       -2.0138111E-18
  -3.675000       -2.0148618E-18
  -3.513500       -2.0158811E-18
  -3.352000       -2.0169525E-18
  -3.190500       -2.0180556E-18
  -3.029000       -2.0190215E-18
  -2.867500       -2.0196731E-18
  -2.706000       -2.0200282E-18
  -2.544500       -2.0203496E-18
  -2.383000       -2.0209371E-18
  -2.221500       -2.0218195E-18
  -2.060000       -2.0226477E-18
  -1.898500       -2.0229295E-18
  -1.737000       -2.0224694E-18
  -1.575500       -2.0216199E-18
  -1.414000       -2.0211031E-18
  -1.252500       -2.0214892E-18
  -1.091000       -2.0227438E-18
 -0.9295000       -2.0242309E-18
 -0.7680000       -2.0251962E-18
 -0.6065000       -2.0253687E-18
 -0.4450000       -2.0252010E-18
 -0.2835000       -2.0255412E-18
 -0.1220000       -2.0269463E-18
  3.9500002E-02   -2.0291789E-18
  0.2010000       -2.0312797E-18
  0.3625000       -2.0322109E-18
  0.5240000       -2.0316151E-18
  0.6855000       -2.0301277E-18
  0.8470000       -2.0289644E-18
   1.008500       -2.0290567E-18
   1.170000       -2.0303378E-18
   1.331500       -2.0317640E-18
   1.493000       -2.0321059E-18
   1.654500       -2.0309608E-18
   1.816000       -2.0291915E-18
   1.977500       -2.0283904E-18
   2.139000       -2.0297060E-18
   2.300500       -2.0329130E-18
   2.462000       -2.0364928E-18
   2.623500       -2.0387163E-18
   2.785000       -2.0389469E-18
   2.946500       -2.0381395E-18
   3.108000       -2.0381081E-18
   3.269500       -2.0400956E-18
   3.431000       -2.0437495E-18
   3.592500       -2.0473092E-18
   3.754000       -2.0488941E-18
   3.915500       -2.0479245E-18
   4.077000       -2.0456065E-18
   4.238500       -2.0440927E-18
   4.400000       -2.0449216E-18
   4.561500       -2.0478804E-18
   4.723000       -2.0511412E-18
   4.884500       -2.0526011E-18
   5.046000       -2.0514617E-18
   5.207500       -2.0488883E-18
   5.369000       -2.0472234E-18
   5.530500       -2.0482853E-18
   5.692000       -2.0519799E-18
   5.853500       -2.0562767E-18
   6.015000       -2.0586447E-18
   6.176500       -2.0579385E-18
   6.338000       -2.0553161E-18
   6.499500       -2.0534463E-18
   6.661000       -2.0545212E-18
   6.822500       -2.0585543E-18
   6.984000       -2.0632713E-18
   7.145500       -2.0657510E-18
   7.307000       -2.0646285E-18
   7.468500       -2.0611868E-18
   7.630000       -2.0584704E-18
   7.791500       -2.0590409E-18
   7.953000       -2.0630482E-18
   8.114500       -2.0681035E-18
   8.276000       -2.0710772E-18
   8.437500       -2.0704879E-18
   8.599000       -2.0676697E-18
   8.760500       -2.0658246E-18
   8.922000       -2.0676264E-18
   9.083500       -2.0731677E-18
   9.245000       -2.0797916E-18
   9.406500       -2.0839736E-18
   9.568000       -2.0838843E-18
   9.729500       -2.0807350E-18
   9.891000       -2.0778924E-18
   10.05250       -2.0783806E-18
   10.21400       -2.0826052E-18
   10.37550       -2.0879978E-18
   10.53700       -2.0909021E-18
   10.69850       -2.0893472E-18
   10.86000       -2.0846413E-18
   11.02150       -2.0805303E-18
   11.18300       -2.0804511E-18
   11.34450       -2.0848947E-18
   11.50600       -2.0909010E-18
   11.66750       -2.0941616E-18
   11.82900       -2.0922404E-18
   11.99050       -2.0864793E-18
   12.15200       -2.0810803E-18
   12.31350       -2.0799626E-18
   12.47500       -2.0837606E-18
   12.63650       -2.0892847E-18
   12.79800       -2.0919286E-18
   12.95950       -2.0892463E-18
   13.12100       -2.0829518E-18
   13.28250       -2.0777592E-18
   13.44400       -2.0778868E-18
   13.60550       -2.0838499E-18
   13.76700       -2.0919900E-18
   13.92850       -2.0971398E-18
   14.09000       -2.0964585E-18
   14.25150       -2.0915471E-18
   14.41300       -2.0872457E-18
   14.57450       -2.0879676E-18
   14.73600       -2.0943094E-18
   14.89750       -2.1024969E-18
   15.05900       -2.1071243E-18
   15.22050       -2.1051929E-18
   15.38200       -2.0984232E-18
   15.54350       -2.0920630E-18
   15.70500       -2.0910150E-18
   15.86650       -2.0961425E-18
   16.02800       -2.1035627E-18
   16.18950       -2.1075210E-18
   16.35100       -2.1047538E-18
   16.51250       -2.0970530E-18
   16.67400       -2.0900455E-18
   16.83550       -2.0890328E-18
   16.99700       -2.0950032E-18
   17.15850       -2.1038545E-18
   17.32000       -2.1094791E-18
   17.48150       -2.1084156E-18
   17.64300       -2.1025283E-18
   17.80450       -2.0976347E-18
   17.96600       -2.0990548E-18
   18.12750       -2.1074641E-18
   18.28900       -2.1182350E-18
   18.45050       -2.1248258E-18
   18.61200       -2.1236758E-18
   18.77350       -2.1168782E-18
   18.93500       -2.1105826E-18
   19.09650       -2.1103150E-18
   19.25800       -2.1167872E-18
   19.41950       -2.1253792E-18
   19.58100       -2.1297014E-18
   19.74250       -2.1265107E-18
   19.90400       -2.1182468E-18
   20.06550       -2.1112687E-18
   20.22700       -2.1111130E-18
   20.38850       -2.1183473E-18
   20.55000       -2.1281246E-18
   20.71150       -2.1337746E-18
   20.87300       -2.1317557E-18
   21.03450       -2.1242811E-18
   21.19600       -2.1176612E-18
   21.35750       -2.1175710E-18
   21.51900       -2.1247679E-18
   21.68050       -2.1344641E-18
   21.84200       -2.1398790E-18
   22.00350       -2.1373578E-18
   22.16500       -2.1292040E-18
   22.32650       -2.1220419E-18
   22.48800       -2.1218595E-18
   22.64950       -2.1294516E-18
   22.81100       -2.1397359E-18
   22.97250       -2.1455183E-18
   23.13400       -2.1428871E-18
   23.29550       -2.1341450E-18
   23.45700       -2.1260341E-18
   23.61850       -2.1246182E-18
   23.78000       -2.1307194E-18
   23.94150       -2.1393604E-18
   24.10300       -2.1436044E-18
   24.26450       -2.1398401E-18
   24.42600       -2.1305273E-18
   24.58750       -2.1223860E-18
   24.74900       -2.1214250E-18
   24.91050       -2.1285278E-18
   25.07200       -2.1388486E-18
   25.23350       -2.1454220E-18
   25.39500       -2.1443038E-18
   25.55650       -2.1374436E-18
   25.71800       -2.1311916E-18
   25.87950       -2.1315472E-18
   26.04100       -2.1396480E-18
   26.20250       -2.1508520E-18
   26.36400       -2.1581330E-18
   26.52550       -2.1572906E-18
   26.68700       -2.1501061E-18
   26.84850       -2.1430283E-18
   27.01000       -2.1423248E-18
   27.17150       -2.1493227E-18
   27.33300       -2.1593401E-18
   27.49450       -2.1651498E-18
   27.65600       -2.1623984E-18
   27.81750       -2.1529053E-18
   27.97900       -2.1433509E-18
   28.14050       -2.1403379E-18
   28.30200       -2.1455330E-18
   28.46350       -2.1545209E-18
   28.62500       -2.1602171E-18
   28.78650       -2.1582546E-18
   28.94800       -2.1502932E-18
   29.10950       -2.1428019E-18
   29.27100       -2.1422255E-18
   29.43250       -2.1501410E-18
   29.59400       -2.1619867E-18
   29.75550       -2.1703230E-18
   29.91700       -2.1702254E-18
   30.07850       -2.1628273E-18
   30.24000       -2.1544126E-18
   30.40150       -2.1517247E-18
   30.56300       -2.1569735E-18
   30.72450       -2.1662291E-18
   30.88600       -2.1723916E-18
   31.04750       -2.1705501E-18
   31.20900       -2.1617555E-18
   31.37050       -2.1523626E-18
   31.53200       -2.1493883E-18
   31.69350       -2.1552954E-18
   31.85500       -2.1661131E-18
   32.01650       -2.1743236E-18
   32.17800       -2.1744198E-18
   32.33950       -2.1669930E-18
   32.50100       -2.1582788E-18
   32.66250       -2.1554825E-18
   32.82400       -2.1613582E-18
   32.98550       -2.1721279E-18
   33.14700       -2.1803300E-18
   33.30850       -2.1804588E-18
   33.47000       -2.1731348E-18
   33.63150       -2.1646529E-18
   33.79300       -2.1622452E-18
   33.95450       -2.1686300E-18
   34.11600       -2.1799419E-18
   34.27750       -2.1885886E-18
   34.43900       -2.1888855E-18
   34.60050       -2.1812637E-18
   34.76200       -2.1719159E-18
   34.92350       -2.1681657E-18
   35.08500       -2.1730324E-18
   35.24650       -2.1830289E-18
   35.40800       -2.1908201E-18
   35.56950       -2.1907347E-18
   35.73100       -2.1830384E-18
   35.89250       -2.1737783E-18
   36.05400       -2.1702992E-18
   36.21550       -2.1757419E-18
   36.37700       -2.1866406E-18
   36.53850       -2.1954459E-18
   36.70000       -2.1961285E-18
   36.86150       -2.1886847E-18
   37.02300       -2.1791585E-18
   37.18450       -2.1751324E-18
   37.34600       -2.1800500E-18
   37.50750       -2.1906379E-18
   37.66900       -2.1993829E-18
   37.83050       -2.2002179E-18
   37.99200       -2.1931120E-18
   38.15350       -2.1840809E-18
   38.31500       -2.1805953E-18
   38.47650       -2.1858804E-18
   38.63800       -2.1964369E-18
   38.79950       -2.2046522E-18
   38.96100       -2.2045050E-18
   39.12250       -2.1960489E-18
   39.28400       -2.1853206E-18
   39.44550       -2.1797903E-18
   39.60700       -2.1828355E-18
   39.76850       -2.1913768E-18
   39.93000       -2.1983774E-18
   40.09150       -2.1982333E-18
   40.25300       -2.1909878E-18
   40.41450       -2.1822590E-18
   40.57600       -2.1790171E-18
   40.73750       -2.1843886E-18
   40.89900       -2.1953171E-18
   41.06050       -2.2047720E-18
   41.22200       -2.2068616E-18
   41.38350       -2.2010798E-18
   41.54500       -2.1925878E-18
   41.70650       -2.1883353E-18
   41.86800       -2.1918907E-18
   42.02950       -2.2008087E-18
   42.19100       -2.2085013E-18
   42.35250       -2.2092408E-18
   42.51400       -2.2025547E-18
   42.67550       -2.1936751E-18
   42.83700       -2.1896660E-18
   42.99850       -2.1941255E-18
   43.16000       -2.2044822E-18
   43.32150       -2.2139373E-18
   43.48300       -2.2165717E-18
   43.64450       -2.2117265E-18
   43.80600       -2.2043633E-18
   43.96750       -2.2012056E-18
   44.12900       -2.2056355E-18
   44.29050       -2.2151988E-18
   44.45200       -2.2235270E-18
   44.61350       -2.2251367E-18
   44.77500       -2.2194755E-18
   44.93650       -2.2112418E-18
   45.09800       -2.2068378E-18
   45.25950       -2.2096457E-18
   45.42100       -2.2176024E-18
   45.58250       -2.2247860E-18
   45.74400       -2.2257966E-18
   45.90550       -2.2197168E-18
   46.06700       -2.2107703E-18
   46.22850       -2.2052172E-18
   46.39000       -2.2067768E-18
   46.55150       -2.2139301E-18
   46.71300       -2.2210993E-18
   46.87450       -2.2228368E-18
   47.03600       -2.2179152E-18
   47.19750       -2.2102692E-18
   47.35900       -2.2060710E-18
   47.52050       -2.2090991E-18
   47.68200       -2.2178656E-18
   47.84350       -2.2266709E-18
   48.00500       -2.2297905E-18
   48.16650       -2.2256725E-18
   48.32800       -2.2180112E-18
   48.48950       -2.2129373E-18
   48.65100       -2.2144630E-18
   48.81250       -2.2215850E-18
   48.97400       -2.2291397E-18
   49.13550       -2.2317172E-18
   49.29700       -2.2276917E-18
   49.45850       -2.2204133E-18
   49.62000       -2.2157209E-18
   49.78150       -2.2176520E-18
   49.94300       -2.2254850E-18
   50.10450       -2.2342508E-18
   50.26600       -2.2383026E-18
   50.42750       -2.2353580E-18
   50.58900       -2.2280976E-18
   50.75050       -2.2221713E-18
   50.91200       -2.2220528E-18
   51.07350       -2.2277581E-18
   51.23500       -2.2348660E-18
   51.39650       -2.2378530E-18
   51.55800       -2.2342980E-18
   51.71950       -2.2268105E-18
   51.88100       -2.2211776E-18
   52.04250       -2.2220708E-18
   52.20400       -2.2295129E-18
   52.36550       -2.2388030E-18
   52.52700       -2.2439876E-18
   52.68850       -2.2422645E-18
   52.85000       -2.2359749E-18
   53.01150       -2.2306768E-18
   53.17300       -2.2308269E-18
   53.33450       -2.2363938E-18
   53.49600       -2.2429552E-18
   53.65750       -2.2451431E-18
   53.81900       -2.2407576E-18
   53.98050       -2.2324554E-18
   54.14200       -2.2257857E-18
   54.30350       -2.2251165E-18
   54.46500       -2.2304890E-18
   54.62650       -2.2376979E-18
   54.78800       -2.2414665E-18
   54.94950       -2.2393212E-18
   55.11100       -2.2333492E-18
   55.27250       -2.2285846E-18
   55.43400       -2.2292501E-18
   55.59550       -2.2356074E-18
   55.75700       -2.2437324E-18
   55.91850       -2.2484020E-18
   56.08000       -2.2469807E-18
   56.24150       -2.2414183E-18
   56.40300       -2.2368320E-18
   56.56450       -2.2376871E-18
   56.72600       -2.2444138E-18
   56.88750       -2.2530073E-18
   57.04900       -2.2579574E-18
   57.21050       -2.2563386E-18
   57.37200       -2.2499879E-18
   57.53350       -2.2441168E-18
   57.69500       -2.2433934E-18
   57.85650       -2.2484783E-18
   58.01800       -2.2556293E-18
   58.17950       -2.2596432E-18
   58.34100       -2.2578495E-18
   58.50250       -2.2521276E-18
   58.66400       -2.2474489E-18
   58.82550       -2.2480935E-18
   58.98700       -2.2544282E-18
   59.14850       -2.2626382E-18
   59.31000       -2.2675622E-18
   59.47150       -2.2664271E-18
   59.63300       -2.2607041E-18
   59.79450       -2.2548112E-18
   59.95600       -2.2527579E-18
   60.11750       -2.2552724E-18
   60.27900       -2.2594829E-18
   60.44050       -2.2612599E-18
   60.60200       -2.2584008E-18
   60.76350       -2.2522941E-18
   60.92500       -2.2468951E-18
   61.08650       -2.2458303E-18
   61.24800       -2.2497857E-18
   61.40950       -2.2560572E-18
   61.57100       -2.2605446E-18
   61.73250       -2.2606881E-18
   61.89400       -2.2572113E-18
   62.05550       -2.2534228E-18
   62.21700       -2.2526440E-18
   62.37850       -2.2557099E-18
   62.54000       -2.2604278E-18
   62.70150       -2.2633585E-18
   62.86300       -2.2625028E-18
   63.02450       -2.2588284E-18
   63.18600       -2.2554974E-18
   63.34750       -2.2554469E-18
   63.50900       -2.2592019E-18
   63.67050       -2.2645471E-18
   63.83200       -2.2682318E-18
   63.99350       -2.2683383E-18
   64.15500       -2.2655520E-18
   64.31650       -2.2624817E-18
   64.47800       -2.2616652E-18
   64.63950       -2.2637787E-18
   64.80100       -2.2672915E-18
   64.96250       -2.2697081E-18
   65.12400       -2.2694463E-18
   65.28550       -2.2670020E-18
   65.44700       -2.2646032E-18
   65.60850       -2.2646077E-18
   65.77000       -2.2677837E-18
   65.93150       -2.2727002E-18
   66.09300       -2.2766980E-18
   66.25450       -2.2777564E-18
   66.41600       -2.2759217E-18
   66.57750       -2.2732290E-18
   66.73900       -2.2721541E-18
   66.90050       -2.2737572E-18
   67.06200       -2.2769331E-18
   67.22350       -2.2793272E-18
   67.38500       -2.2791781E-18
   67.54650       -2.2766415E-18
   67.70800       -2.2736128E-18
   67.86950       -2.2722536E-18
   68.03100       -2.2734029E-18
   68.19250       -2.2760460E-18
   68.35400       -2.2781350E-18
   68.51550       -2.2780581E-18
   68.67700       -2.2756768E-18
   68.83850       -2.2722953E-18
   69.00000       -2.2697259E-18
   69.16150       -2.2691630E-18
   69.32300       -2.2705659E-18
   69.48450       -2.2728483E-18
   69.64600       -2.2746799E-18
   69.80750       -2.2753838E-18
   69.96900       -2.2753880E-18
   70.13050       -2.2759316E-18
   70.29200       -2.2781842E-18
   70.45350       -2.2823350E-18
   70.61500       -2.2872942E-18
   70.77650       -2.2912735E-18
   70.93800       -2.2929039E-18
   71.09950       -2.2921171E-18
   71.26100       -2.2901436E-18
   71.42250       -2.2886092E-18
   71.58400       -2.2884041E-18
   71.74550       -2.2891535E-18
   71.90700       -2.2896469E-18
   72.06850       -2.2888445E-18
   72.23000       -2.2866939E-18
   72.39150       -2.2841573E-18
   72.55300       -2.2825071E-18
   72.71450       -2.2824345E-18
   72.87600       -2.2835996E-18
   73.03750       -2.2848993E-18
   73.19900       -2.2852138E-18
   73.36050       -2.2841228E-18
   73.52200       -2.2821421E-18
   73.68350       -2.2803688E-18
   73.84500       -2.2797747E-18
   74.00650       -2.2805963E-18
   74.16800       -2.2822213E-18
   74.32950       -2.2836546E-18
   74.49100       -2.2842624E-18
   74.65250       -2.2842586E-18
   74.81400       -2.2845517E-18
   74.97550       -2.2860257E-18
   75.13700       -2.2887697E-18
   75.29850       -2.2918737E-18
   75.46000       -2.2939968E-18
   75.62150       -2.2943385E-18
   75.78300       -2.2932708E-18
   75.94450       -2.2921222E-18
   76.10600       -2.2922306E-18
   76.26750       -2.2939569E-18
   76.42900       -2.2964281E-18
   76.59050       -2.2982202E-18
   76.75200       -2.2984812E-18
   76.91350       -2.2976348E-18
   77.07500       -2.2970998E-18
   77.23650       -2.2982030E-18
   77.39800       -2.3010926E-18
   77.55950       -2.3045041E-18
   77.72100       -2.3065913E-18
   77.88250       -2.3062515E-18
   78.04400       -2.3039770E-18
   78.20550       -2.3015875E-18
   78.36700       -2.3009898E-18
   78.52850       -2.3028408E-18
   78.69000       -2.3060704E-18
   78.85150       -2.3086204E-18
   79.01300       -2.3089035E-18
   79.17450       -2.3069416E-18
   79.33600       -2.3043513E-18
   79.49750       -2.3031599E-18
   79.65900       -2.3042721E-18
   79.82050       -2.3067042E-18
   79.98200       -2.3082018E-18
   80.14350       -2.3068473E-18
   80.30500       -2.3025244E-18
   80.46650       -2.2971372E-18
   80.62800       -2.2933777E-18
   80.78950       -2.2929062E-18
   80.95100       -2.2952647E-18
   81.11250       -2.2983207E-18
   81.27400       -2.2998944E-18
   81.43550       -2.2993425E-18
   81.59700       -2.2979305E-18
   81.75850       -2.2977711E-18
   81.92000       -2.3001730E-18
   82.08150       -2.3046416E-18
   82.24300       -2.3092207E-18
   82.40450       -2.3118509E-18
   82.56600       -2.3117425E-18
   82.72750       -2.3098227E-18
   82.88900       -2.3080196E-18
   83.05050       -2.3079398E-18
   83.21200       -2.3098411E-18
   83.37350       -2.3125563E-18
   83.53500       -2.3143819E-18
   83.69650       -2.3142973E-18
   83.85800       -2.3126771E-18
   84.01950       -2.3109944E-18
   84.18100       -2.3107144E-18
   84.34250       -2.3121849E-18
   84.50400       -2.3143653E-18
   84.66550       -2.3156307E-18
   84.82700       -2.3150403E-18
   84.98850       -2.3130708E-18
   85.15000       -2.3112367E-18
   85.31150       -2.3109059E-18
   85.47300       -2.3122645E-18
   85.63450       -2.3142470E-18
   85.79600       -2.3154349E-18
   85.95750       -2.3151665E-18
   86.11900       -2.3139753E-18
   86.28050       -2.3130753E-18
   86.44200       -2.3133806E-18
   86.60350       -2.3148370E-18
   86.76500       -2.3165218E-18
   86.92650       -2.3173541E-18
   87.08800       -2.3168632E-18
   87.24950       -2.3155120E-18
   87.41100       -2.3144096E-18
   87.57250       -2.3146052E-18
   87.73400       -2.3164006E-18
   87.89550       -2.3190960E-18
   88.05700       -2.3213813E-18
   88.21850       -2.3221789E-18
   88.38000       -2.3214243E-18
   88.54150       -2.3202048E-18
   88.70300       -2.3200617E-18
   88.86450       -2.3218571E-18
   89.02600       -2.3250293E-18
   89.18750       -2.3278724E-18
   89.34900       -2.3287363E-18
   89.51050       -2.3272960E-18
   89.67200       -2.3249166E-18
   89.83350       -2.3237747E-18
   89.99500       -2.3253265E-18
   90.15650       -2.3292091E-18
   90.31800       -2.3333967E-18
   90.47950       -2.3355362E-18
   90.64100       -2.3345616E-18
   90.80250       -2.3314499E-18
   90.96400       -2.3285554E-18
   91.12550       -2.3279478E-18
   91.28700       -2.3298797E-18
   91.44850       -2.3324814E-18
   91.61000       -2.3329785E-18
   91.77150       -2.3296667E-18
   91.93300       -2.3232933E-18
   92.09450       -2.3167774E-18
   92.25600       -2.3133314E-18
   92.41750       -2.3142481E-18
   92.57900       -2.3179671E-18
   92.74050       -2.3211887E-18
   92.90200       -2.3213093E-18
   93.06350       -2.3184191E-18
   93.22500       -2.3153408E-18
   93.38650       -2.3155885E-18
   93.54800       -2.3207050E-18
   93.70950       -2.3289694E-18
   93.87100       -2.3365001E-18
   94.03250       -2.3399872E-18
   94.19400       -2.3390358E-18
   94.35550       -2.3363725E-18
   94.51700       -2.3357537E-18
   94.67850       -2.3391224E-18
   94.84000       -2.3451195E-18
   95.00150       -2.3500689E-18
   95.16300       -2.3507119E-18
   95.32450       -2.3466558E-18
   95.48600       -2.3406980E-18
   95.64750       -2.3367772E-18
   95.80900       -2.3370836E-18
   95.97050       -2.3404924E-18
   96.13200       -2.3434914E-18
   96.29350       -2.3428991E-18
   96.45500       -2.3383352E-18
   96.61650       -2.3325583E-18
   96.77800       -2.3294002E-18
   96.93950       -2.3308392E-18
   97.10100       -2.3354677E-18
   97.26250       -2.3395346E-18
   97.42400       -2.3397949E-18
   97.58550       -2.3359951E-18
   97.74700       -2.3310717E-18
   97.90850       -2.3288896E-18
   98.07000       -2.3312229E-18
   98.23150       -2.3363193E-18
   98.39300       -2.3402052E-18
   98.55450       -2.3397738E-18
   98.71600       -2.3352827E-18
   98.87750       -2.3302803E-18
   99.03900       -2.3289618E-18
   99.20050       -2.3329713E-18
   99.36200       -2.3401033E-18
   99.52350       -2.3459330E-18
   99.68500       -2.3471583E-18
   99.84650       -2.3441054E-18
   100.0080       -2.3404726E-18
   100.1695       -2.3404815E-18
   100.3310       -2.3456048E-18
   100.4925       -2.3533537E-18
   100.6540       -2.3590401E-18
   100.8155       -2.3592000E-18
   100.9770       -2.3541422E-18
   101.1385       -2.3477576E-18
   101.3000       -2.3447293E-18
   101.4615       -2.3471688E-18
   101.6230       -2.3531132E-18
   101.7845       -2.3579631E-18
   101.9460       -2.3578326E-18
   102.1075       -2.3523968E-18
   102.2690       -2.3451772E-18
   102.4305       -2.3410446E-18
   102.5920       -2.3427052E-18
   102.7535       -2.3486966E-18
   102.9150       -2.3543777E-18
   103.0765       -2.3552421E-18
   103.2380       -2.3501849E-18
   103.3995       -2.3423253E-18
   103.5610       -2.3367600E-18
   103.7225       -2.3368855E-18
   103.8840       -2.3419847E-18
   104.0455       -2.3478384E-18
   104.2070       -2.3498909E-18
   104.3685       -2.3466092E-18
   104.5300       -2.3405795E-18
   104.6915       -2.3365807E-18
   104.8530       -2.3380947E-18
   105.0145       -2.3448198E-18
   105.1760       -2.3529496E-18
   105.3375       -2.3579284E-18
   105.4990       -2.3576624E-18
   105.6605       -2.3538791E-18
   105.8220       -2.3507439E-18
   105.9835       -2.3517731E-18
   106.1450       -2.3572625E-18
   106.3065       -2.3640661E-18
   106.4680       -2.3678686E-18
   106.6295       -2.3663276E-18
   106.7910       -2.3608045E-18
   106.9525       -2.3553953E-18
   107.1140       -2.3539317E-18
   107.2755       -2.3571442E-18
   107.4370       -2.3621098E-18
   107.5985       -2.3644639E-18
   107.7600       -2.3617611E-18
   107.9215       -2.3554576E-18
   108.0830       -2.3499407E-18
   108.2445       -2.3492719E-18
   108.4060       -2.3540884E-18
   108.5675       -2.3610479E-18
   108.7290       -2.3652909E-18
   108.8905       -2.3640979E-18
   109.0520       -2.3589694E-18
   109.2135       -2.3545189E-18
   109.3750       -2.3549578E-18
   109.5365       -2.3607859E-18
   109.6980       -2.3682158E-18
   109.8595       -2.3718581E-18
   110.0210       -2.3687479E-18
   110.1825       -2.3607265E-18
   110.3440       -2.3533144E-18
   110.5055       -2.3517646E-18
   110.6670       -2.3571525E-18
   110.8285       -2.3654415E-18
   110.9900       -2.3703661E-18
   111.1515       -2.3681352E-18
   111.3130       -2.3604523E-18
   111.4745       -2.3534579E-18
   111.6360       -2.3532035E-18
   111.7975       -2.3609602E-18
   111.9590       -2.3719543E-18
   112.1205       -2.3786722E-18
   112.2820       -2.3763900E-18
   112.4435       -2.3668082E-18
   112.6050       -2.3569509E-18
   112.7665       -2.3540166E-18
   112.9280       -2.3599759E-18
   113.0895       -2.3700060E-18
   113.2510       -2.3760364E-18
   113.4125       -2.3728131E-18
   113.5740       -2.3619423E-18
   113.7355       -2.3508308E-18
   113.8970       -2.3472495E-18
   114.0585       -2.3535497E-18
   114.2200       -2.3648728E-18
   114.3815       -2.3727223E-18
   114.5430       -2.3712950E-18
   114.7045       -2.3618443E-18
   114.8660       -2.3517909E-18
   115.0275       -2.3492051E-18
   115.1890       -2.3567726E-18
   115.3505       -2.3697552E-18
   115.5120       -2.3795114E-18
   115.6735       -2.3799434E-18
   115.8350       -2.3720463E-18
   115.9965       -2.3631256E-18
   116.1580       -2.3612373E-18
   116.3195       -2.3690430E-18
   116.4810       -2.3817427E-18
   116.6425       -2.3906763E-18
   116.8040       -2.3898809E-18
   116.9655       -2.3806225E-18
   117.1270       -2.3704351E-18
   117.2885       -2.3673860E-18
   117.4500       -2.3739242E-18
   117.6115       -2.3850051E-18
   117.7730       -2.3919381E-18
   117.9345       -2.3890368E-18
   118.0960       -2.3779813E-18
   118.2575       -2.3665383E-18
   118.4190       -2.3626133E-18
   118.5805       -2.3681834E-18
   118.7420       -2.3777770E-18