  -27.90000       -1.4823874E-18
  -27.73850       -1.4847541E-18
  -27.57700       -1.4880215E-18
  -27.41550       -1.4903885E-18
  -27.25400       -1.4910233E-18
  -27.09250       -1.4906128E-18
  -26.93100       -1.4907578E-18
  -26.76950       -1.4926993E-18
  -26.60800       -1.4963356E-18
  -26.44650       -1.5002696E-18
  -26.28500       -1.5028283E-18
  -26.12350       -1.5032913E-18
  -25.96200       -1.5024169E-18
  -25.80050       -1.5018859E-18
  -25.63900       -1.5030732E-18
  -25.47750       -1.5060532E-18
  -25.31600       -1.5095674E-18
  -25.15450       -1.5119699E-18
  -24.99300       -1.5124601E-18
  -24.83150       -1.5116869E-18
  -24.67000       -1.5112599E-18
  -24.50850       -1.5125324E-18
  -24.34700       -1.5155630E-18
  -24.18550       -1.5190581E-18
  -24.02400       -1.5213461E-18
  -23.86250       -1.5216515E-18
  -23.70100       -1.5206911E-18
  -23.53950       -1.5201309E-18
  -23.37800       -1.5213202E-18
  -23.21650       -1.5242656E-18
  -23.05500       -1.5276319E-18
  -22.89350       -1.5297543E-18
  -22.73200       -1.5298944E-18
  -22.57050       -1.5287837E-18
  -22.40900       -1.5280586E-18
  -22.24750       -1.5290266E-18
  -22.08600       -1.5316964E-18
  -21.92450       -1.5347836E-18
  -21.76300       -1.5366853E-18
  -21.60150       -1.5366926E-18
  -21.44000       -1.5355388E-18
  -21.27850       -1.5348698E-18
  -21.11700       -1.5360233E-18
  -20.95550       -1.5390190E-18
  -20.79400       -1.5425198E-18
  -20.63250       -1.5448080E-18
  -20.47100       -1.5450539E-18
  -20.30950       -1.5439275E-18
  -20.14800       -1.5430860E-18
  -19.98650       -1.5439131E-18
  -19.82500       -1.5464691E-18
  -19.66350       -1.5494502E-18
  -19.50200       -1.5511933E-18
  -19.34050       -1.5509559E-18
  -19.17900       -1.5494994E-18
  -19.01750       -1.5485371E-18
  -18.85600       -1.5494678E-18
  -18.69450       -1.5523483E-18
  -18.53300       -1.5558686E-18
  -18.37150       -1.5583206E-18
  -18.21000       -1.5588334E-18
  -18.04850       -1.5579657E-18
  -17.88700       -1.5572417E-18
  -17.72550       -1.5579907E-18
  -17.56400       -1.5603527E-18
  -17.40250       -1.5631785E-18
  -17.24100       -1.5648841E-18
  -17.07950       -1.5646374E-18
  -16.91800       -1.5630051E-18
  -16.75650       -1.5615831E-18
  -16.59500       -1.5618583E-18
  -16.43350       -1.5641467E-18
  -16.27200       -1.5673753E-18
  -16.11050       -1.5698895E-18
  -15.94900       -1.5706838E-18
  -15.78750       -1.5701414E-18
  -15.62600       -1.5697204E-18
  -15.46450       -1.5708219E-18
  -15.30300       -1.5736937E-18
  -15.14150       -1.5772060E-18
  -14.98000       -1.5796699E-18
  -14.81850       -1.5800884E-18
  -14.65700       -1.5788828E-18
  -14.49550       -1.5775690E-18
  -14.33400       -1.5776219E-18
  -14.17250       -1.5793925E-18
  -14.01100       -1.5818737E-18
  -13.84950       -1.5834889E-18
  -13.68800       -1.5832946E-18
  -13.52650       -1.5817173E-18
  -13.36500       -1.5802622E-18
  -13.20350       -1.5804231E-18
  -13.04200       -1.5825888E-18
  -12.88050       -1.5857596E-18
  -12.71900       -1.5882866E-18
  -12.55750       -1.5891029E-18
  -12.39600       -1.5885367E-18
  -12.23450       -1.5880822E-18
  -12.07300       -1.5892790E-18
  -11.91150       -1.5925101E-18
  -11.75000       -1.5966425E-18
  -11.58850       -1.5998038E-18
  -11.42700       -1.6007468E-18
  -11.26550       -1.5997690E-18
  -11.10400       -1.5984765E-18
  -10.94250       -1.5985497E-18
  -10.78100       -1.6004440E-18
  -10.61950       -1.6030261E-18
  -10.45800       -1.6044398E-18
  -10.29650       -1.6035563E-18
  -10.13500       -1.6008982E-18
  -9.973500       -1.5983190E-18
  -9.812000       -1.5976758E-18
  -9.650500       -1.5994815E-18
  -9.489000       -1.6025503E-18
  -9.327500       -1.6048868E-18
  -9.166000       -1.6051626E-18
  -9.004500       -1.6036826E-18
  -8.843000       -1.6021337E-18
  -8.681500       -1.6022977E-18
  -8.520000       -1.6046884E-18
  -8.358500       -1.6081291E-18
  -8.197000       -1.6106025E-18
  -8.035500       -1.6107484E-18
  -7.874000       -1.6089038E-18
  -7.712500       -1.6068859E-18
  -7.551000       -1.6066656E-18
  -7.389500       -1.6089100E-18
  -7.228000       -1.6124903E-18
  -7.066500       -1.6153374E-18
  -6.905000       -1.6160067E-18
  -6.743500       -1.6147607E-18
  -6.582000       -1.6133393E-18
  -6.420500       -1.6136009E-18
  -6.259000       -1.6160723E-18
  -6.097500       -1.6195296E-18
  -5.936000       -1.6219214E-18
  -5.774500       -1.6219240E-18
  -5.613000       -1.6199473E-18
  -5.451500       -1.6178270E-18
  -5.290000       -1.6174550E-18
  -5.128500       -1.6193846E-18
  -4.967000       -1.6224585E-18
  -4.805500       -1.6247288E-18
  -4.644000       -1.6249610E-18
  -4.482500       -1.6235891E-18
  -4.321000       -1.6223958E-18
  -4.159500       -1.6231619E-18
  -3.998000       -1.6262945E-18
  -3.836500       -1.6304815E-18
  -3.675000       -1.6336513E-18
  -3.513500       -1.6345267E-18
  -3.352000       -1.6336022E-18
  -3.190500       -1.6327857E-18
  -3.029000       -1.6339464E-18
  -2.867500       -1.6374634E-18
  -2.706000       -1.6418849E-18
  -2.544500       -1.6449858E-18
  -2.383000       -1.6454251E-18
  -2.221500       -1.6437508E-18
  -2.060000       -1.6419766E-18
  -1.898500       -1.6420488E-18
  -1.737000       -1.6443647E-18
  -1.575500       -1.6474745E-18
  -1.414000       -1.6491935E-18
  -1.252500       -1.6482835E-18
  -1.091000       -1.6454288E-18
 -0.9295000       -1.6427604E-18
 -0.7680000       -1.6422959E-18
 -0.6065000       -1.6444613E-18
 -0.4450000       -1.6477940E-18
 -0.2835000       -1.6500378E-18
 -0.1220000       -1.6498016E-18
  3.9500002E-02   -1.6475523E-18
  0.2010000       -1.6452047E-18
  0.3625000       -1.6446392E-18
  0.5240000       -1.6462701E-18
  0.6855000       -1.6487413E-18
  0.8470000       -1.6499744E-18
   1.008500       -1.6487671E-18
   1.170000       -1.6457256E-18
   1.331500       -1.6428370E-18
   1.493000       -1.6420091E-18
   1.654500       -1.6436853E-18
   1.816000       -1.6465751E-18
   1.977500       -1.6486878E-18
   2.139000       -1.6488610E-18
   2.300500       -1.6476126E-18
   2.462000       -1.6466872E-18
   2.623500       -1.6476663E-18
   2.785000       -1.6507219E-18
   2.946500       -1.6544636E-18
   3.108000       -1.6569718E-18
   3.269500       -1.6572372E-18
   3.431000       -1.6559033E-18
   3.592500       -1.6547718E-18
   3.754000       -1.6554326E-18
   3.915500       -1.6580715E-18
   4.077000       -1.6613460E-18
   4.238500       -1.6634211E-18
   4.400000       -1.6633734E-18
   4.561500       -1.6619005E-18
   4.723000       -1.6607977E-18
   4.884500       -1.6615973E-18
   5.046000       -1.6644083E-18
   5.207500       -1.6678287E-18
   5.369000       -1.6700047E-18
   5.530500       -1.6700197E-18
   5.692000       -1.6685707E-18
   5.853500       -1.6674334E-18
   6.015000       -1.6681295E-18
   6.176500       -1.6708102E-18
   6.338000       -1.6741598E-18
   6.499500       -1.6763739E-18
   6.661000       -1.6764728E-18
   6.822500       -1.6749891E-18
   6.984000       -1.6735501E-18
   7.145500       -1.6736765E-18
   7.307000       -1.6756869E-18
   7.468500       -1.6784955E-18
   7.630000       -1.6804483E-18
   7.791500       -1.6805624E-18
   7.953000       -1.6792577E-18
   8.114500       -1.6780424E-18
   8.276000       -1.6783843E-18
   8.437500       -1.6806184E-18
   8.599000       -1.6837106E-18
   8.760500       -1.6860363E-18
   8.922000       -1.6865764E-18
   9.083500       -1.6856317E-18
   9.245000       -1.6845191E-18
   9.406500       -1.6845309E-18
   9.568000       -1.6859526E-18
   9.729500       -1.6878859E-18
   9.891000       -1.6889709E-18
   10.05250       -1.6884424E-18
   10.21400       -1.6867125E-18
   10.37550       -1.6850710E-18
   10.53700       -1.6847424E-18
   10.69850       -1.6860081E-18
   10.86000       -1.6880343E-18
   11.02150       -1.6895210E-18
   11.18300       -1.6896772E-18
   11.34450       -1.6888002E-18
   11.50600       -1.6880226E-18
   11.66750       -1.6884288E-18
   11.82900       -1.6902045E-18
   11.99050       -1.6924636E-18
   12.15200       -1.6938956E-18
   12.31350       -1.6937427E-18
   12.47500       -1.6923646E-18
   12.63650       -1.6909642E-18
   12.79800       -1.6906912E-18
   12.95950       -1.6918104E-18
   13.12100       -1.6935617E-18
   13.28250       -1.6947840E-18
   13.44400       -1.6948115E-18
   13.60550       -1.6939659E-18
   13.76700       -1.6933001E-18
   13.92850       -1.6938160E-18
   14.09000       -1.6957573E-18
   14.25150       -1.6984703E-18
   14.41300       -1.7008940E-18
   14.57450       -1.7022926E-18
   14.73600       -1.7027083E-18
   14.89750       -1.7028415E-18
   15.05900       -1.7034970E-18
   15.22050       -1.7049995E-18
   15.38200       -1.7069842E-18
   15.54350       -1.7086758E-18
   15.70500       -1.7094402E-18
   15.86650       -1.7092179E-18
   16.02800       -1.7085465E-18
   16.18950       -1.7081856E-18
   16.35100       -1.7086150E-18
   16.51250       -1.7097415E-18
   16.67400       -1.7110067E-18
   16.83550       -1.7117984E-18
   16.99700       -1.7118816E-18
   17.15850       -1.7115452E-18
   17.32000       -1.7113864E-18
   17.48150       -1.7118817E-18
   17.64300       -1.7130560E-18
   17.80450       -1.7144611E-18
   17.96600       -1.7154814E-18
   18.12750       -1.7157408E-18
   18.28900       -1.7153531E-18
   18.45050       -1.7148435E-18
   18.61200       -1.7147988E-18
   18.77350       -1.7154706E-18
   18.93500       -1.7166028E-18
   19.09650       -1.7175993E-18
   19.25800       -1.7179392E-18
   19.41950       -1.7175712E-18
   19.58100       -1.7170144E-18
   19.74250       -1.7170645E-18
   19.90400       -1.7182611E-18
   20.06550       -1.7204717E-18
   20.22700       -1.7229140E-18
   20.38850       -1.7246513E-18
   20.55000       -1.7252478E-18
   20.71150       -1.7251116E-18
   20.87300       -1.7252284E-18
   21.03450       -1.7264185E-18
   21.19600       -1.7286562E-18
   21.35750       -1.7309761E-18
   21.51900       -1.7321090E-18
   21.68050       -1.7314162E-18
   21.84200       -1.7294320E-18
   22.00350       -1.7275626E-18
   22.16500       -1.7271125E-18
   22.32650       -1.7283448E-18
   22.48800       -1.7302867E-18
   22.64950       -1.7314616E-18
   22.81100       -1.7310262E-18
   22.97250       -1.7294566E-18
   23.13400       -1.7282430E-18
   23.29550       -1.7287833E-18
   23.45700       -1.7312897E-18
   23.61850       -1.7345504E-18
   23.78000       -1.7367581E-18
   23.94150       -1.7368218E-18
   24.10300       -1.7351925E-18
   24.26450       -1.7335545E-18
   24.42600       -1.7335854E-18
   24.58750       -1.7356919E-18
   24.74900       -1.7386863E-18
   24.91050       -1.7406810E-18
   25.07200       -1.7405590E-18
   25.23350       -1.7388949E-18
   25.39500       -1.7375863E-18
   25.55650       -1.7384272E-18
   25.71800       -1.7416900E-18
   25.87950       -1.7458366E-18
   26.04100       -1.7486242E-18
   26.20250       -1.7488017E-18
   26.36400       -1.7470911E-18
   26.52550       -1.7456596E-18
   26.68700       -1.7464448E-18
   26.84850       -1.7496148E-18
   27.01000       -1.7533561E-18
   27.17150       -1.7551962E-18
   27.33300       -1.7538754E-18
   27.49450       -1.7503384E-18
   27.65600       -1.7470743E-18
   27.81750       -1.7462792E-18
   27.97900       -1.7482109E-18
   28.14050       -1.7509887E-18
   28.30200       -1.7520182E-18
   28.46350       -1.7499945E-18
   28.62500       -1.7459895E-18
   28.78650       -1.7427666E-18
   28.94800       -1.7427895E-18
   29.10950       -1.7463809E-18
   29.27100       -1.7514114E-18
   29.43250       -1.7548122E-18
   29.59400       -1.7548229E-18
   29.75550       -1.7522982E-18
   29.91700       -1.7500515E-18
   30.07850       -1.7506860E-18
   30.24000       -1.7545380E-18
   30.40150       -1.7593230E-18
   30.56300       -1.7618091E-18
   30.72450       -1.7602763E-18
   30.88600       -1.7558846E-18
   31.04750       -1.7518800E-18
   31.20900       -1.7512063E-18
   31.37050       -1.7543289E-18
   31.53200       -1.7589293E-18
   31.69350       -1.7617096E-18
   31.85500       -1.7609315E-18
   32.01650       -1.7577478E-18
   32.17800       -1.7553215E-18
   32.33950       -1.7563991E-18
   32.50100       -1.7611775E-18
   32.66250       -1.7670838E-18
   32.82400       -1.7706481E-18
   32.98550       -1.7700823E-18
   33.14700       -1.7666365E-18
   33.30850       -1.7636907E-18
   33.47000       -1.7642356E-18
   33.63150       -1.7686067E-18
   33.79300       -1.7741837E-18
   33.95450       -1.7773318E-18
   34.11600       -1.7761549E-18
   34.27750       -1.7720000E-18
   34.43900       -1.7685206E-18
   34.60050       -1.7689425E-18
   34.76200       -1.7735764E-18
   34.92350       -1.7794965E-18
   35.08500       -1.7827049E-18
   35.24650       -1.7811781E-18
   35.40800       -1.7764744E-18
   35.56950       -1.7726222E-18
   35.73100       -1.7730803E-18
   35.89250       -1.7780684E-18
   36.05400       -1.7843204E-18
   36.21550       -1.7874959E-18
   36.37700       -1.7854532E-18
   36.53850       -1.7798923E-18
   36.70000       -1.7751048E-18
   36.86150       -1.7747534E-18
   37.02300       -1.7791073E-18
   37.18450       -1.7848407E-18
   37.34600       -1.7875489E-18
   37.50750       -1.7851023E-18
   37.66900       -1.7793106E-18
   37.83050       -1.7746194E-18
   37.99200       -1.7747803E-18
   38.15350       -1.7799829E-18
   38.31500       -1.7866226E-18
   38.47650       -1.7899324E-18
   38.63800       -1.7875330E-18
   38.79950       -1.7812311E-18
   38.96100       -1.7756757E-18
   39.12250       -1.7748467E-18
   39.28400       -1.7790072E-18
   39.44550       -1.7844637E-18
   39.60700       -1.7863745E-18
   39.76850       -1.7825035E-18
   39.93000       -1.7750527E-18
   40.09150       -1.7691187E-18
   40.25300       -1.7688986E-18
   40.41450       -1.7745198E-18
   40.57600       -1.7819280E-18
   40.73750       -1.7859437E-18
   40.89900       -1.7841897E-18
   41.06050       -1.7789032E-18
   41.22200       -1.7752485E-18
   41.38350       -1.7773713E-18
   41.54500       -1.7851902E-18
   41.70650       -1.7943591E-18
   41.86800       -1.7994708E-18
   42.02950       -1.7981039E-18
   42.19100       -1.7926580E-18
   42.35250       -1.7885777E-18
   42.51400       -1.7902536E-18
   42.67550       -1.7976701E-18
   42.83700       -1.8063451E-18
   42.99850       -1.8106626E-18
   43.16000       -1.8081351E-18
   43.32150       -1.8013603E-18
   43.48300       -1.7961427E-18
   43.64450       -1.7971345E-18
   43.80600       -1.8042869E-18
   43.96750       -1.8128284E-18
   44.12900       -1.8168437E-18
   44.29050       -1.8137633E-18
   44.45200       -1.8063468E-18
   44.61350       -1.8005904E-18
   44.77500       -1.8011285E-18
   44.93650       -1.8076254E-18
   45.09800       -1.8149443E-18
   45.25950       -1.8170184E-18
   45.42100       -1.8114803E-18
   45.58250       -1.8015384E-18
   45.74400       -1.7936440E-18
   45.90550       -1.7926948E-18
   46.06700       -1.7983969E-18
   46.22850       -1.8055452E-18
   46.39000       -1.8080168E-18
   46.55150       -1.8034754E-18
   46.71300       -1.7952044E-18
   46.87450       -1.7896621E-18
   47.03600       -1.7915826E-18
   47.19750       -1.8003137E-18
   47.35900       -1.8101901E-18
   47.52050       -1.8147116E-18
   47.68200       -1.8114166E-18
   47.84350       -1.8037643E-18
   48.00500       -1.7985568E-18
   48.16650       -1.8007887E-18
   48.32800       -1.8098166E-18
   48.48950       -1.8197802E-18
   48.65100       -1.8240073E-18
   48.81250       -1.8200864E-18
   48.97400       -1.8117392E-18
   49.13550       -1.8060285E-18
   49.29700       -1.8079800E-18
   49.45850       -1.8167033E-18
   49.62000       -1.8259977E-18
   49.78150       -1.8290270E-18
   49.94300       -1.8235352E-18
   50.10450       -1.8136133E-18
   50.26600       -1.8066458E-18
   50.42750       -1.8077228E-18
   50.58900       -1.8157665E-18
   50.75050       -1.8243309E-18
   50.91200       -1.8264996E-18
   51.07350       -1.8201752E-18
   51.23500       -1.8097254E-18
   51.39650       -1.8027014E-18
   51.55800       -1.8040935E-18
   51.71950       -1.8125093E-18
   51.88100       -1.8212139E-18
   52.04250       -1.8232771E-18
   52.20400       -1.8169256E-18
   52.36550       -1.8069976E-18
   52.52700       -1.8013539E-18
   52.68850       -1.8049290E-18
   52.85000       -1.8159417E-18
   53.01150       -1.8271816E-18
   53.17300       -1.8314199E-18
   53.33450       -1.8268418E-18
   53.49600       -1.8183676E-18
   53.65750       -1.8138321E-18
   53.81900       -1.8179269E-18
   53.98050       -1.8285229E-18
   54.14200       -1.8382120E-18
   54.30350       -1.8399280E-18
   54.46500       -1.8323910E-18
   54.62650       -1.8212064E-18
   54.78800       -1.8147336E-18
   54.94950       -1.8178311E-18
   55.11100       -1.8282236E-18
   55.27250       -1.8382613E-18
   55.43400       -1.8407436E-18
   55.59550       -1.8343816E-18
   55.75700       -1.8247244E-18
   55.91850       -1.8198584E-18
   56.08000       -1.8241593E-18
   56.24150       -1.8348930E-18
   56.40300       -1.8442594E-18
   56.56450       -1.8453256E-18
   56.72600       -1.8373112E-18
   56.88750       -1.8261993E-18
   57.04900       -1.8202173E-18
   57.21050       -1.8236237E-18
   57.37200       -1.8335294E-18
   57.53350       -1.8421577E-18
   57.69500       -1.8427992E-18
   57.85650       -1.8349279E-18
   58.01800       -1.8245751E-18
   58.17950       -1.8196979E-18
   58.34100       -1.8240842E-18
   58.50250       -1.8344573E-18
   58.66400       -1.8429876E-18
   58.82550       -1.8433042E-18
   58.98700       -1.8353978E-18
   59.14850       -1.8256517E-18
   59.31000       -1.8219656E-18
   59.47150       -1.8277064E-18
   59.63300       -1.8391141E-18
   59.79450       -1.8481471E-18
   59.95600       -1.8485872E-18
   60.11750       -1.8407240E-18
   60.27900       -1.8310526E-18
   60.44050       -1.8272531E-18
   60.60200       -1.8323165E-18
   60.76350       -1.8423159E-18
   60.92500       -1.8494938E-18
   61.08650       -1.8482598E-18
   61.24800       -1.8395138E-18
   61.40950       -1.8300060E-18
   61.57100       -1.8272548E-18
   61.73250       -1.8338985E-18
   61.89400       -1.8457423E-18
   62.05550       -1.8549289E-18
   62.21700       -1.8557927E-18
   62.37850       -1.8489714E-18
   62.54000       -1.8407294E-18
   62.70150       -1.8380716E-18
   62.86300       -1.8433929E-18
   63.02450       -1.8526918E-18
   63.18600       -1.8586659E-18
   63.34750       -1.8562977E-18
   63.50900       -1.8467010E-18
   63.67050       -1.8363354E-18
   63.83200       -1.8322071E-18
   63.99350       -1.8366894E-18
   64.15500       -1.8458604E-18
   64.31650       -1.8525707E-18
   64.47800       -1.8518814E-18
   64.63950       -1.8447404E-18
   64.80100       -1.8371425E-18
   64.96250       -1.8354757E-18
   65.12400       -1.8416351E-18
   65.28550       -1.8516138E-18
   65.44700       -1.8585923E-18
   65.60850       -1.8581233E-18
   65.77000       -1.8514533E-18
   65.93150       -1.8445059E-18
   66.09300       -1.8433523E-18
   66.25450       -1.8496424E-18
   66.41600       -1.8594094E-18
   66.57750       -1.8661023E-18
   66.73900       -1.8654889E-18
   66.90050       -1.8587499E-18
   67.06200       -1.8514831E-18
   67.22350       -1.8494307E-18
   67.38500       -1.8541688E-18
   67.54650       -1.8619790E-18
   67.70800       -1.8667171E-18
   67.86950       -1.8644883E-18
   68.03100       -1.8566170E-18
   68.19250       -1.8486790E-18
   68.35400       -1.8463310E-18
   68.51550       -1.8510888E-18
   68.67700       -1.8592123E-18
   68.83850       -1.8645290E-18
   69.00000       -1.8630498E-18
   69.16150       -1.8559005E-18
   69.32300       -1.8483948E-18
   69.48450       -1.8459840E-18
   69.64600       -1.8501832E-18
   69.80750       -1.8575230E-18
   69.96900       -1.8622751E-18
   70.13050       -1.8608381E-18
   70.29200       -1.8544732E-18
   70.45350       -1.8483553E-18
   70.61500       -1.8477021E-18
   70.77650       -1.8538888E-18
   70.93800       -1.8634272E-18
   71.09950       -1.8705294E-18
   71.26100       -1.8713175E-18
   71.42250       -1.8665572E-18
   71.58400       -1.8609316E-18
   71.74550       -1.8594418E-18
   71.90700       -1.8636365E-18
   72.06850       -1.8704704E-18
   72.23000       -1.8746369E-18
   72.39150       -1.8726130E-18
   72.55300       -1.8653899E-18
   72.71450       -1.8578338E-18
   72.87600       -1.8551353E-18
   73.03750       -1.8589962E-18
   73.19900       -1.8664084E-18
   73.36050       -1.8719300E-18
   73.52200       -1.8717538E-18
   73.68350       -1.8665002E-18
   73.84500       -1.8606516E-18
   74.00650       -1.8590880E-18
   74.16800       -1.8633610E-18
   74.32950       -1.8705302E-18
   74.49100       -1.8754058E-18
   74.65250       -1.8744777E-18
   74.81400       -1.8685559E-18
   74.97550       -1.8621511E-18
   75.13700       -1.8601001E-18
   75.29850       -1.8639897E-18
   75.46000       -1.8710375E-18
   75.62150       -1.8762332E-18
   75.78300       -1.8760922E-18
   75.94450       -1.8712190E-18
   76.10600       -1.8657936E-18
   76.26750       -1.8644004E-18
   76.42900       -1.8685991E-18
   76.59050       -1.8757861E-18
   76.75200       -1.8811921E-18
   76.91350       -1.8814999E-18
   77.07500       -1.8773548E-18
   77.23650       -1.8728717E-18
   77.39800       -1.8724983E-18
   77.55950       -1.8776009E-18
   77.72100       -1.8853545E-18
   77.88250       -1.8907980E-18
   78.04400       -1.8905161E-18
   78.20550       -1.8851653E-18
   78.36700       -1.8789304E-18
   78.52850       -1.8763281E-18
   78.69000       -1.8787970E-18
   78.85150       -1.8836695E-18
   79.01300       -1.8863056E-18
   79.17450       -1.8837343E-18
   79.33600       -1.8770209E-18
   79.49750       -1.8705492E-18
   79.65900       -1.8687671E-18
   79.82050       -1.8728523E-18
   79.98200       -1.8798209E-18
   80.14350       -1.8847267E-18
   80.30500       -1.8843001E-18
   80.46650       -1.8792878E-18
   80.62800       -1.8737839E-18
   80.78950       -1.8720967E-18
   80.95100       -1.8755181E-18
   81.11250       -1.8814076E-18
   81.27400       -1.8852317E-18
   81.43550       -1.8840101E-18
   81.59700       -1.8785822E-18
   81.75850       -1.8730039E-18
   81.92000       -1.8715458E-18
   82.08150       -1.8755464E-18
   82.24300       -1.8824625E-18
   82.40450       -1.8877939E-18
   82.56600       -1.8884083E-18
   82.72750       -1.8847749E-18
   82.88900       -1.8804690E-18
   83.05050       -1.8793769E-18
   83.21200       -1.8827520E-18
   83.37350       -1.8883348E-18
   83.53500       -1.8921548E-18
   83.69650       -1.8915830E-18
   83.85800       -1.8873000E-18
   84.01950       -1.8827226E-18
   84.18100       -1.8813832E-18
   84.34250       -1.8842997E-18
   84.50400       -1.8892987E-18
   84.66550       -1.8927462E-18
   84.82700       -1.8923208E-18
   84.98850       -1.8887116E-18
   85.15000       -1.8850077E-18
   85.31150       -1.8842999E-18
   85.47300       -1.8873573E-18
   85.63450       -1.8921153E-18
   85.79600       -1.8953084E-18
   85.95750       -1.8949668E-18
   86.11900       -1.8918921E-18
   86.28050       -1.8890189E-18
   86.44200       -1.8891626E-18
   86.60350       -1.8928564E-18
   86.76500       -1.8978985E-18
   86.92650       -1.9009560E-18
   87.08800       -1.9000142E-18
   87.24950       -1.8958690E-18
   87.41100       -1.8915336E-18
   87.57250       -1.8900262E-18
   87.73400       -1.8921732E-18
   87.89550       -1.8960653E-18
   88.05700       -1.8985559E-18
   88.21850       -1.8976708E-18
   88.38000       -1.8941135E-18
   88.54150       -1.8907428E-18
   88.70300       -1.8904322E-18
   88.86450       -1.8939183E-18
   89.02600       -1.8992396E-18
   89.18750       -1.9031300E-18
   89.34900       -1.9033194E-18
   89.51050       -1.9000599E-18
   89.67200       -1.8958297E-18
   89.83350       -1.8934913E-18
   89.99500       -1.8942808E-18
   90.15650       -1.8970494E-18
   90.31800       -1.8992292E-18
   90.47950       -1.8987774E-18
   90.64100       -1.8956835E-18
   90.80250       -1.8919968E-18
   90.96400       -1.8903794E-18
   91.12550       -1.8922222E-18
   91.28700       -1.8966583E-18
   91.44850       -1.9011735E-18
   91.61000       -1.9033881E-18
   91.77150       -1.9027127E-18
   91.93300       -1.9006758E-18
   92.09450       -1.8996953E-18
   92.25600       -1.9012320E-18
   92.41750       -1.9047153E-18
   92.57900       -1.9080310E-18
   92.74050       -1.9091786E-18
   92.90200       -1.9078009E-18
   93.06350       -1.9054325E-18
   93.22500       -1.9043042E-18
   93.38650       -1.9056432E-18
   93.54800       -1.9087848E-18
   93.70950       -1.9117153E-18
   93.87100       -1.9125907E-18
   94.03250       -1.9110656E-18
   94.19400       -1.9084951E-18
   94.35550       -1.9068964E-18
   94.51700       -1.9074702E-18
   94.67850       -1.9097431E-18
   94.84000       -1.9119463E-18
   95.00150       -1.9123496E-18
   95.16300       -1.9105695E-18
   95.32450       -1.9078882E-18
   95.48600       -1.9063306E-18
   95.64750       -1.9071358E-18
   95.80900       -1.9097568E-18
   95.97050       -1.9121595E-18
   96.13200       -1.9122747E-18
   96.29350       -1.9095491E-18
   96.45500       -1.9054310E-18
   96.61650       -1.9023723E-18
   96.77800       -1.9020725E-18
   96.93950       -1.9042819E-18
   97.10100       -1.9070672E-18
   97.26250       -1.9083264E-18
   97.42400       -1.9074131E-18
   97.58550       -1.9056359E-18
   97.74700       -1.9052784E-18
   97.90850       -1.9078530E-18
   98.07000       -1.9128976E-18
   98.23150       -1.9181988E-18
   98.39300       -1.9212823E-18
   98.55450       -1.9210986E-18
   98.71600       -1.9186963E-18
   98.87750       -1.9164228E-18
   99.03900       -1.9162392E-18
   99.20050       -1.9183588E-18
   99.36200       -1.9211673E-18
   99.52350       -1.9224819E-18
   99.68500       -1.9212124E-18
   99.84650       -1.9182157E-18
   100.0080       -1.9156897E-18
   100.1695       -1.9155598E-18
   100.3310       -1.9180364E-18
   100.4925       -1.9214121E-18
   100.6540       -1.9232468E-18
   100.8155       -1.9220836E-18
   100.9770       -1.9184544E-18
   101.1385       -1.9144537E-18
   101.3000       -1.9122124E-18
   101.4615       -1.9123988E-18
   101.6230       -1.9138432E-18
   101.7845       -1.9145234E-18
   101.9460       -1.9131602E-18
   102.1075       -1.9102305E-18
   102.2690       -1.9076563E-18
   102.4305       -1.9074055E-18
   102.5920       -1.9100339E-18
   102.7535       -1.9142450E-18
   102.9150       -1.9178065E-18
   103.0765       -1.9191591E-18
   103.2380       -1.9185247E-18
   103.3995       -1.9176971E-18
   103.5610       -1.9186645E-18
   103.7225       -1.9220900E-18
   103.8840       -1.9267839E-18
   104.0455       -1.9305612E-18
   104.2070       -1.9318570E-18
   104.3685       -1.9308811E-18
   104.5300       -1.9294300E-18
   104.6915       -1.9294811E-18
   104.8530       -1.9316179E-18
   105.0145       -1.9344992E-18
   105.1760       -1.9358092E-18
   105.3375       -1.9340155E-18
   105.4990       -1.9296180E-18
   105.6605       -1.9249231E-18
   105.8220       -1.9224598E-18
   105.9835       -1.9231726E-18
   106.1450       -1.9257575E-18
   106.3065       -1.9276696E-18
   106.4680       -1.9271003E-18
   106.6295       -1.9244154E-18
   106.7910       -1.9219389E-18
   106.9525       -1.9221827E-18
   107.1140       -1.9258409E-18
   107.2755       -1.9310877E-18
   107.4370       -1.9347740E-18
   107.5985       -1.9346886E-18
   107.7600       -1.9312010E-18
   107.9215       -1.9270357E-18
   108.0830       -1.9252947E-18
   108.2445       -1.9271881E-18
   108.4060       -1.9311510E-18
   108.5675       -1.9340285E-18
   108.7290       -1.9334590E-18
   108.8905       -1.9296937E-18
   109.0520       -1.9254893E-18
   109.2135       -1.9241090E-18
   109.3750       -1.9268829E-18
   109.5365       -1.9321477E-18
   109.6980       -1.9363992E-18
   109.8595       -1.9368554E-18
   110.0210       -1.9335347E-18
   110.1825       -1.9292718E-18
   110.3440       -1.9276110E-18
   110.5055       -1.9301317E-18
   110.6670       -1.9352368E-18
   110.8285       -1.9393613E-18
   110.9900       -1.9396974E-18
   111.1515       -1.9363545E-18
   111.3130       -1.9322666E-18
   111.4745       -1.9309030E-18
   111.6360       -1.9335614E-18
   111.7975       -1.9383474E-18
   111.9590       -1.9416379E-18
   112.1205       -1.9408898E-18
   112.2820       -1.9366054E-18
   112.4435       -1.9319378E-18
   112.6050       -1.9302491E-18
   112.7665       -1.9325224E-18
   112.9280       -1.9366316E-18
   113.0895       -1.9390245E-18
   113.2510       -1.9375047E-18
   113.4125       -1.9329712E-18
   113.5740       -1.9287559E-18
   113.7355       -1.9280598E-18
   113.8970       -1.9314523E-18
   114.0585       -1.9363777E-18
   114.2200       -1.9390975E-18
   114.3815       -1.9376003E-18
   114.5430       -1.9332377E-18
   114.7045       -1.9297799E-18
   114.8660       -1.9305523E-18
   115.0275       -1.9358345E-18
   115.1890       -1.9425510E-18
   115.3505       -1.9465495E-18
   115.5120       -1.9457557E-18
   115.6735       -1.9417678E-18
   115.8350       -1.9386169E-18
   115.9965       -1.9396217E-18
   116.1580       -1.9447504E-18
   116.3195       -1.9505467E-18
   116.4810       -1.9527042E-18
   116.6425       -1.9493328E-18
   116.8040       -1.9424248E-18
   116.9655       -1.9363897E-18
   117.1270       -1.9347688E-18
   117.2885       -1.9376377E-18
   117.4500       -1.9416543E-18
   117.6115       -1.9426980E-18
   117.7730       -1.9390656E-18
   117.9345       -1.9327993E-18
   118.0960       -1.9281570E-18
   118.2575       -1.9284070E-18
   118.4190       -1.9333856E-18
   118.5805       -1.9396422E-18
   118.7420       -1.9430514E-18