  -27.90000        9.3460441E-18
  -27.73850        9.3733741E-18
  -27.57700        9.4112391E-18
  -27.41550        9.4388736E-18
  -27.25400        9.4464522E-18
  -27.09250        9.4416356E-18
  -26.93100        9.4429499E-18
  -26.76950        9.4650770E-18
  -26.60800        9.5071540E-18
  -26.44650        9.5529203E-18
  -26.28500        9.5825979E-18
  -26.12350        9.5875800E-18
  -25.96200        9.5768713E-18
  -25.80050        9.5704334E-18
  -25.63900        9.5844078E-18
  -25.47750        9.6192908E-18
  -25.31600        9.6598723E-18
  -25.15450        9.6869020E-18
  -24.99300        9.6916368E-18
  -24.83150        9.6823253E-18
  -24.67000        9.6778163E-18
  -24.50850        9.6932027E-18
  -24.34700        9.7283752E-18
  -24.18550        9.7681196E-18
  -24.02400        9.7936290E-18
  -23.86250        9.7967061E-18
  -23.70100        9.7859429E-18
  -23.53950        9.7802312E-18
  -23.37800        9.7945331E-18
  -23.21650        9.8286188E-18
  -23.05500        9.8672564E-18
  -22.89350        9.8916615E-18
  -22.73200        9.8935814E-18
  -22.57050        9.8814293E-18
  -22.40900        9.8738755E-18
  -22.24750        9.8857720E-18
  -22.08600        9.9170047E-18
  -21.92450        9.9526818E-18
  -21.76300        9.9745003E-18
  -21.60150        9.9747220E-18
  -21.44000        9.9622035E-18
  -21.27850        9.9559061E-18
  -21.11700        9.9707044E-18
  -20.95550        1.0006129E-17
  -20.79400        1.0046520E-17
  -20.63250        1.0072496E-17
  -20.47100        1.0075202E-17
  -20.30950        1.0062689E-17
  -20.14800        1.0053678E-17
  -19.98650        1.0063421E-17
  -19.82500        1.0092279E-17
  -19.66350        1.0125577E-17
  -19.50200        1.0144839E-17
  -19.34050        1.0141934E-17
  -19.17900        1.0125499E-17
  -19.01750        1.0114798E-17
  -18.85600        1.0125556E-17
  -18.69450        1.0158362E-17
  -18.53300        1.0198244E-17
  -18.37150        1.0225708E-17
  -18.21000        1.0230969E-17
  -18.04850        1.0220789E-17
  -17.88700        1.0212924E-17
  -17.72550        1.0222483E-17
  -17.56400        1.0250475E-17
  -17.40250        1.0283097E-17
  -17.24100        1.0302243E-17
  -17.07950        1.0299285E-17
  -16.91800        1.0281804E-17
  -16.75650        1.0268236E-17
  -16.59500        1.0274473E-17
  -16.43350        1.0302401E-17
  -16.27200        1.0338847E-17
  -16.11050        1.0365620E-17
  -15.94900        1.0373044E-17
  -15.78750        1.0366887E-17
  -15.62600        1.0363578E-17
  -15.46450        1.0377423E-17
  -15.30300        1.0409460E-17
  -15.14150        1.0446364E-17
  -14.98000        1.0470211E-17
  -14.81850        1.0471772E-17
  -14.65700        1.0457363E-17
  -14.49550        1.0444119E-17
  -14.33400        1.0447244E-17
  -14.17250        1.0468797E-17
  -14.01100        1.0496406E-17
  -13.84950        1.0512839E-17
  -13.68800        1.0509213E-17
  -13.52650        1.0491898E-17
  -13.36500        1.0477917E-17
  -13.20350        1.0482325E-17
  -13.04200        1.0507022E-17
  -12.88050        1.0539433E-17
  -12.71900        1.0562024E-17
  -12.55750        1.0565537E-17
  -12.39600        1.0555981E-17
  -12.23450        1.0550157E-17
  -12.07300        1.0562991E-17
  -11.91150        1.0596167E-17
  -11.75000        1.0636562E-17
  -11.58850        1.0665663E-17
  -11.42700        1.0673018E-17
  -11.26550        1.0663674E-17
  -11.10400        1.0654128E-17
  -10.94250        1.0659813E-17
  -10.78100        1.0683491E-17
  -10.61950        1.0713226E-17
  -10.45800        1.0731447E-17
  -10.29650        1.0728326E-17
  -10.13500        1.0709475E-17
  -9.973500        1.0692165E-17
  -9.812000        1.0692837E-17
  -9.650500        1.0715174E-17
  -9.489000        1.0747532E-17
  -9.327500        1.0771620E-17
  -9.166000        1.0775945E-17
  -9.004500        1.0764056E-17
  -8.843000        1.0751545E-17
  -8.681500        1.0754121E-17
  -8.520000        1.0775704E-17
  -8.358500        1.0805397E-17
  -8.197000        1.0825610E-17
  -8.035500        1.0825265E-17
  -7.874000        1.0808249E-17
  -7.712500        1.0790822E-17
  -7.551000        1.0789845E-17
  -7.389500        1.0810551E-17
  -7.228000        1.0842906E-17
  -7.066500        1.0869263E-17
  -6.905000        1.0877565E-17
  -6.743500        1.0870250E-17
  -6.582000        1.0862205E-17
  -6.420500        1.0869310E-17
  -6.259000        1.0896209E-17
  -6.097500        1.0932541E-17
  -5.936000        1.0960525E-17
  -5.774500        1.0968235E-17
  -5.613000        1.0958580E-17
  -5.451500        1.0947209E-17
  -5.290000        1.0950864E-17
  -5.128500        1.0974893E-17
  -4.967000        1.1009312E-17
  -4.805500        1.1036338E-17
  -4.644000        1.1043763E-17
  -4.482500        1.1034112E-17
  -4.321000        1.1022704E-17
  -4.159500        1.1026064E-17
  -3.998000        1.1049361E-17
  -3.836500        1.1082330E-17
  -3.675000        1.1106794E-17
  -3.513500        1.1110225E-17
  -3.352000        1.1095234E-17
  -3.190500        1.1077810E-17
  -3.029000        1.1075508E-17
  -2.867500        1.1094340E-17
  -2.706000        1.1124147E-17
  -2.544500        1.1146044E-17
  -2.383000        1.1146463E-17
  -2.221500        1.1127372E-17
  -2.060000        1.1104938E-17
  -1.898500        1.1097553E-17
  -1.737000        1.1112108E-17
  -1.575500        1.1138845E-17
  -1.414000        1.1158746E-17
  -1.252500        1.1158017E-17
  -1.091000        1.1138812E-17
 -0.9295000        1.1118041E-17
 -0.7680000        1.1115043E-17
 -0.6065000        1.1137223E-17
 -0.4450000        1.1174446E-17
 -0.2835000        1.1206400E-17
 -0.1220000        1.1217509E-17
  3.9500002E-02    1.1208261E-17
  0.2010000        1.1194476E-17
  0.3625000        1.1195091E-17
  0.5240000        1.1217635E-17
  0.6855000        1.1252323E-17
  0.8470000        1.1279293E-17
   1.008500        1.1283570E-17
   1.170000        1.1266553E-17
   1.331500        1.1245326E-17
   1.493000        1.1240209E-17
   1.654500        1.1259816E-17
   1.816000        1.1294824E-17
   1.977500        1.1325149E-17
   2.139000        1.1335157E-17
   2.300500        1.1325430E-17
   2.462000        1.1312187E-17
   2.623500        1.1314770E-17
   2.785000        1.1340670E-17
   2.946500        1.1379505E-17
   3.108000        1.1410587E-17
   3.269500        1.1418427E-17
   3.431000        1.1404424E-17
   3.592500        1.1385862E-17
   3.754000        1.1382896E-17
   3.915500        1.1403361E-17
   4.077000        1.1436894E-17
   4.238500        1.1462827E-17
   4.400000        1.1465901E-17
   4.561500        1.1447923E-17
   4.723000        1.1426511E-17
   4.884500        1.1421844E-17
   5.046000        1.1441390E-17
   5.207500        1.1474159E-17
   5.369000        1.1498908E-17
   5.530500        1.1500209E-17
   5.692000        1.1480291E-17
   5.853500        1.1457634E-17
   6.015000        1.1453256E-17
   6.176500        1.1474891E-17
   6.338000        1.1511027E-17
   6.499500        1.1539401E-17
   6.661000        1.1543656E-17
   6.822500        1.1525653E-17
   6.984000        1.1504082E-17
   7.145500        1.1500315E-17
   7.307000        1.1522164E-17
   7.468500        1.1557837E-17
   7.630000        1.1584769E-17
   7.791500        1.1586709E-17
   7.953000        1.1566145E-17
   8.114500        1.1542646E-17
   8.276000        1.1538299E-17
   8.437500        1.1561172E-17
   8.599000        1.1599275E-17
   8.760500        1.1629558E-17
   8.922000        1.1635174E-17
   9.083500        1.1617983E-17
   9.245000        1.1596926E-17
   9.406500        1.1593509E-17
   9.568000        1.1615420E-17
   9.729500        1.1650651E-17
   9.891000        1.1676587E-17
   10.05250        1.1677190E-17
   10.21400        1.1655295E-17
   10.37550        1.1630696E-17
   10.53700        1.1625430E-17
   10.69850        1.1647342E-17
   10.86000        1.1684357E-17
   11.02150        1.1713753E-17
   11.18300        1.1719400E-17
   11.34450        1.1703901E-17
   11.50600        1.1686440E-17
   11.66750        1.1687968E-17
   11.82900        1.1715022E-17
   11.99050        1.1754479E-17
   12.15200        1.1783301E-17
   12.31350        1.1785908E-17
   12.47500        1.1766011E-17
   12.63650        1.1743894E-17
   12.79800        1.1741173E-17
   12.95950        1.1764532E-17
   13.12100        1.1800784E-17
   13.28250        1.1826975E-17
   13.44400        1.1827926E-17
   13.60550        1.1807874E-17
   13.76700        1.1787377E-17
   13.92850        1.1787747E-17
   14.09000        1.1814814E-17
   14.25150        1.1854332E-17
   14.41300        1.1882594E-17
   14.57450        1.1884286E-17
   14.73600        1.1864065E-17
   14.89750        1.1843069E-17
   15.05900        1.1842927E-17
   15.22050        1.1869335E-17
   15.38200        1.1907645E-17
   15.54350        1.1933860E-17
   15.70500        1.1932730E-17
   15.86650        1.1909272E-17
   16.02800        1.1884967E-17
   16.18950        1.1881492E-17
   16.35100        1.1904352E-17
   16.51250        1.1938803E-17
   16.67400        1.1961177E-17
   16.83550        1.1956977E-17
   16.99700        1.1932034E-17
   17.15850        1.1908265E-17
   17.32000        1.1907248E-17
   17.48150        1.1934065E-17
   17.64300        1.1973598E-17
   17.80450        1.2002035E-17
   17.96600        1.2004796E-17
   18.12750        1.1987344E-17
   18.28900        1.1970741E-17
   18.45050        1.1975410E-17
   18.61200        1.2005441E-17
   18.77350        1.2045327E-17
   18.93500        1.2071578E-17
   19.09650        1.2070420E-17
   19.25800        1.2048164E-17
   19.41950        1.2026410E-17
   19.58100        1.2025728E-17
   19.74250        1.2050184E-17
   19.90400        1.2084431E-17
   20.06550        1.2105524E-17
   20.22700        1.2100465E-17
   20.38850        1.2076135E-17
   20.55000        1.2054079E-17
   20.71150        1.2054114E-17
   20.87300        1.2079256E-17
   21.03450        1.2113425E-17
   21.19600        1.2133678E-17
   21.35750        1.2127666E-17
   21.51900        1.2103036E-17
   21.68050        1.2081666E-17
   21.84200        1.2083138E-17
   22.00350        1.2109987E-17
   22.16500        1.2145912E-17
   22.32650        1.2168253E-17
   22.48800        1.2165246E-17
   22.64950        1.2144947E-17
   22.81100        1.2129048E-17
   22.97250        1.2136308E-17
   23.13400        1.2168189E-17
   23.29550        1.2207605E-17
   23.45700        1.2231738E-17
   23.61850        1.2229192E-17
   23.78000        1.2208485E-17
   23.94150        1.2191459E-17
   24.10300        1.2196623E-17
   24.26450        1.2225117E-17
   24.42600        1.2259936E-17
   24.58750        1.2278957E-17
   24.74900        1.2271818E-17
   24.91050        1.2247814E-17
   25.07200        1.2228856E-17
   25.23350        1.2232914E-17
   25.39500        1.2260520E-17
   25.55650        1.2294531E-17
   25.71800        1.2313222E-17
   25.87950        1.2306744E-17
   26.04100        1.2284476E-17
   26.20250        1.2267793E-17
   26.36400        1.2273827E-17
   26.52550        1.2302540E-17
   26.68700        1.2336844E-17
   26.84850        1.2355565E-17
   27.01000        1.2349405E-17
   27.17150        1.2327842E-17
   27.33300        1.2311812E-17
   27.49450        1.2317770E-17
   27.65600        1.2345222E-17
   27.81750        1.2377166E-17
   27.97900        1.2393038E-17
   28.14050        1.2384330E-17
   28.30200        1.2361021E-17
   28.46350        1.2344001E-17
   28.62500        1.2349294E-17
   28.78650        1.2376089E-17
   28.94800        1.2407615E-17
   29.10950        1.2424111E-17
   29.27100        1.2417944E-17
   29.43250        1.2399346E-17
   29.59400        1.2388481E-17
   29.75550        1.2399948E-17
   29.91700        1.2431587E-17
   30.07850        1.2466030E-17
   30.24000        1.2483744E-17
   30.40150        1.2477625E-17
   30.56300        1.2458081E-17
   30.72450        1.2444885E-17
   30.88600        1.2452057E-17
   31.04750        1.2477303E-17
   31.20900        1.2503968E-17
   31.37050        1.2513916E-17
   31.53200        1.2501473E-17
   31.69350        1.2477859E-17
   31.85500        1.2462791E-17
   32.01650        1.2469673E-17
   32.17800        1.2495614E-17
   32.33950        1.2523774E-17
   32.50100        1.2536212E-17
   32.66250        1.2527457E-17
   32.82400        1.2508539E-17
   32.98550        1.2498511E-17
   33.14700        1.2509969E-17
   33.30850        1.2539573E-17
   33.47000        1.2570670E-17
   33.63150        1.2585942E-17
   33.79300        1.2580458E-17
   33.95450        1.2565259E-17
   34.11600        1.2558858E-17
   34.27750        1.2573140E-17
   34.43900        1.2604334E-17
   34.60050        1.2635847E-17
   34.76200        1.2650722E-17
   34.92350        1.2644246E-17
   35.08500        1.2627245E-17
   35.24650        1.2617677E-17
   35.40800        1.2626986E-17
   35.56950        1.2651560E-17
   35.73100        1.2675695E-17
   35.89250        1.2683700E-17
   36.05400        1.2671892E-17
   36.21550        1.2651392E-17
   36.37700        1.2639700E-17
   36.53850        1.2647520E-17
   36.70000        1.2670849E-17
   36.86150        1.2694228E-17
   37.02300        1.2702571E-17
   37.18450        1.2692539E-17
   37.34600        1.2674893E-17
   37.50750        1.2666158E-17
   37.66900        1.2676047E-17
   37.83050        1.2700166E-17
   37.99200        1.2723496E-17
   38.15350        1.2731849E-17
   38.31500        1.2722582E-17
   38.47650        1.2706443E-17
   38.63800        1.2699267E-17
   38.79950        1.2709884E-17
   38.96100        1.2733417E-17
   39.12250        1.2755013E-17
   39.28400        1.2761128E-17
   39.44550        1.2749747E-17
   39.60700        1.2731842E-17
   39.76850        1.2723040E-17
   39.93000        1.2731879E-17
   40.09150        1.2753591E-17
   40.25300        1.2773985E-17
   40.41450        1.2780399E-17
   40.57600        1.2771366E-17
   40.73750        1.2757711E-17
   40.89900        1.2754334E-17
   41.06050        1.2768956E-17
   41.22200        1.2796304E-17
   41.38350        1.2822061E-17
   41.54500        1.2833539E-17
   41.70650        1.2828989E-17
   41.86800        1.2818641E-17
   42.02950        1.2816762E-17
   42.19100        1.2830790E-17
   42.35250        1.2855731E-17
   42.51400        1.2877997E-17
   42.67550        1.2885730E-17
   42.83700        1.2877774E-17
   42.99850        1.2864510E-17
   43.16000        1.2859959E-17
   43.32150        1.2871212E-17
   43.48300        1.2893204E-17
   43.64450        1.2912729E-17
   43.80600        1.2918568E-17
   43.96750        1.2909958E-17
   44.12900        1.2897023E-17
   44.29050        1.2892956E-17
   44.45200        1.2904009E-17
   44.61350        1.2924920E-17
   44.77500        1.2943127E-17
   44.93650        1.2948413E-17
   45.09800        1.2940586E-17
   45.25950        1.2929437E-17
   45.42100        1.2927171E-17
   45.58250        1.2939136E-17
   45.74400        1.2959838E-17
   45.90550        1.2977178E-17
   46.06700        1.2981592E-17
   46.22850        1.2973188E-17
   46.39000        1.2961526E-17
   46.55150        1.2958287E-17
   46.71300        1.2968447E-17
   46.87450        1.2986601E-17
   47.03600        1.3001201E-17
   47.19750        1.3003429E-17
   47.35900        1.2993951E-17
   47.52050        1.2982433E-17
   47.68200        1.2980202E-17
   47.84350        1.2991681E-17
   48.00500        1.3011127E-17
   48.16650        1.3027116E-17
   48.32800        1.3031287E-17
   48.48950        1.3024620E-17
   48.65100        1.3016536E-17
   48.81250        1.3017588E-17
   48.97400        1.3031428E-17
   49.13550        1.3052118E-17
   49.29700        1.3068741E-17
   49.45850        1.3073661E-17
   49.62000        1.3068123E-17
   49.78150        1.3061033E-17
   49.94300        1.3062003E-17
   50.10450        1.3074040E-17
   50.26600        1.3091371E-17
   50.42750        1.3103923E-17
   50.58900        1.3104953E-17
   50.75050        1.3096036E-17
   50.91200        1.3085740E-17
   51.07350        1.3083111E-17
   51.23500        1.3090971E-17
   51.39650        1.3104084E-17
   51.55800        1.3113476E-17
   51.71950        1.3113478E-17
   51.88100        1.3106090E-17
   52.04250        1.3099410E-17
   52.20400        1.3101441E-17
   52.36550        1.3114063E-17
   52.52700        1.3131759E-17
   52.68850        1.3145936E-17
   52.85000        1.3151397E-17
   53.01150        1.3150035E-17
   53.17300        1.3148995E-17
   53.33450        1.3154930E-17
   53.49600        1.3168841E-17
   53.65750        1.3185391E-17
   53.81900        1.3197058E-17
   53.98050        1.3199817E-17
   54.14200        1.3196030E-17
   54.30350        1.3192474E-17
   54.46500        1.3195164E-17
   54.62650        1.3204946E-17
   54.78800        1.3217124E-17
   54.94950        1.3225260E-17
   55.11100        1.3226114E-17
   55.27250        1.3222040E-17
   55.43400        1.3219108E-17
   55.59550        1.3222510E-17
   55.75700        1.3232762E-17
   55.91850        1.3245481E-17
   56.08000        1.3254792E-17
   56.24150        1.3257727E-17
   56.40300        1.3256275E-17
   56.56450        1.3255654E-17
   56.72600        1.3260214E-17
   56.88750        1.3270148E-17
   57.04900        1.3281429E-17
   57.21050        1.3288910E-17
   57.37200        1.3290125E-17
   57.53350        1.3286962E-17
   57.69500        1.3284035E-17
   57.85650        1.3285153E-17
   58.01800        1.3290603E-17
   58.17950        1.3297235E-17
   58.34100        1.3301087E-17
   58.50250        1.3300426E-17
   58.66400        1.3296950E-17
   58.82550        1.3294362E-17
   58.98700        1.3295621E-17
   59.14850        1.3300918E-17
   59.31000        1.3307808E-17
   59.47150        1.3313194E-17
   59.63300        1.3315570E-17
   59.79450        1.3315910E-17
   59.95600        1.3316717E-17
   60.11750        1.3320094E-17
   60.27900        1.3326302E-17
   60.44050        1.3333752E-17
   60.60200        1.3340270E-17
   60.76350        1.3344638E-17
   60.92500        1.3347302E-17
   61.08650        1.3349883E-17
   61.24800        1.3353936E-17
   61.40950        1.3359907E-17
   61.57100        1.3366960E-17
   61.73250        1.3373677E-17
   61.89400        1.3379045E-17
   62.05550        1.3383040E-17
   62.21700        1.3386521E-17
   62.37850        1.3390602E-17
   62.54000        1.3395958E-17
   62.70150        1.3402497E-17
   62.86300        1.3409485E-17
   63.02450        1.3416021E-17
   63.18600        1.3421556E-17
   63.34750        1.3426222E-17
   63.50900        1.3430790E-17
   63.67050        1.3436252E-17
   63.83200        1.3443196E-17
   63.99350        1.3451336E-17
   64.15500        1.3459547E-17
   64.31650        1.3466500E-17
   64.47800        1.3471534E-17
   64.63950        1.3475154E-17
   64.80100        1.3478718E-17
   64.96250        1.3483425E-17
   65.12400        1.3489282E-17
   65.28550        1.3494855E-17
   65.44700        1.3498140E-17
   65.60850        1.3498009E-17
   65.77000        1.3495213E-17
   65.93150        1.3492070E-17
   66.09300        1.3490940E-17
   66.25450        1.3492541E-17
   66.41600        1.3495387E-17
   66.57750        1.3496915E-17
   66.73900        1.3495551E-17
   66.90050        1.3492192E-17
   67.06200        1.3489870E-17
   67.22350        1.3491681E-17
   67.38500        1.3498457E-17
   67.54650        1.3507979E-17
   67.70800        1.3516473E-17
   67.86950        1.3521380E-17
   68.03100        1.3523330E-17
   68.19250        1.3525741E-17
   68.35400        1.3532212E-17
   68.51550        1.3543620E-17
   68.67700        1.3557144E-17
   68.83850        1.3568099E-17
   69.00000        1.3573318E-17
   69.16150        1.3573547E-17
   69.32300        1.3572952E-17
   69.48450        1.3575992E-17
   69.64600        1.3583958E-17
   69.80750        1.3593866E-17
   69.96900        1.3600651E-17
   70.13050        1.3601103E-17
   70.29200        1.3596541E-17
   70.45350        1.3592083E-17
   70.61500        1.3592908E-17
   70.77650        1.3600357E-17
   70.93800        1.3610874E-17
   71.09950        1.3618707E-17
   71.26100        1.3620354E-17
   71.42250        1.3617296E-17
   71.58400        1.3614860E-17
   71.74550        1.3618046E-17
   71.90700        1.3627520E-17
   72.06850        1.3638923E-17
   72.23000        1.3646066E-17
   72.39150        1.3645627E-17
   72.55300        1.3639714E-17
   72.71450        1.3634323E-17
   72.87600        1.3634815E-17
   73.03750        1.3641854E-17
   73.19900        1.3650907E-17
   73.36050        1.3655729E-17
   73.52200        1.3653217E-17
   73.68350        1.3645938E-17
   73.84500        1.3640348E-17
   74.00650        1.3641965E-17
   74.16800        1.3651129E-17
   74.32950        1.3662625E-17
   74.49100        1.3669586E-17
   74.65250        1.3668771E-17
   74.81400        1.3663181E-17
   74.97550        1.3659910E-17
   75.13700        1.3664768E-17
   75.29850        1.3677751E-17
   75.46000        1.3692910E-17
   75.62150        1.3702825E-17
   75.78300        1.3704287E-17
   75.94450        1.3700817E-17
   76.10600        1.3699985E-17
   76.26750        1.3707547E-17
   76.42900        1.3722920E-17
   76.59050        1.3739499E-17
   76.75200        1.3749628E-17
   76.91350        1.3750412E-17
   77.07500        1.3745943E-17
   77.23650        1.3744193E-17
   77.39800        1.3750964E-17
   77.55950        1.3765481E-17
   77.72100        1.3780989E-17
   77.88250        1.3789912E-17
   78.04400        1.3789646E-17
   78.20550        1.3784579E-17
   78.36700        1.3782813E-17
   78.52850        1.3790036E-17
   78.69000        1.3805175E-17
   78.85150        1.3821154E-17
   79.01300        1.3830213E-17
   79.17450        1.3829779E-17
   79.33600        1.3824422E-17
   79.49750        1.3822368E-17
   79.65900        1.3829179E-17
   79.82050        1.3843426E-17
   79.98200        1.3857671E-17
   80.14350        1.3864043E-17
   80.30500        1.3860180E-17
   80.46650        1.3850991E-17
   80.62800        1.3844863E-17
   80.78950        1.3847215E-17
   80.95100        1.3856327E-17
   81.11250        1.3864649E-17
   81.27400        1.3864627E-17
   81.43550        1.3854561E-17
   81.59700        1.3840044E-17
   81.75850        1.3829877E-17
   81.92000        1.3829571E-17
   82.08150        1.3837383E-17
   82.24300        1.3845855E-17
   82.40450        1.3847680E-17
   82.56600        1.3841398E-17
   82.72750        1.3832596E-17
   82.88900        1.3829686E-17
   83.05050        1.3837465E-17
   83.21200        1.3853367E-17
   83.37350        1.3869236E-17
   83.53500        1.3877335E-17
   83.69650        1.3876040E-17
   83.85800        1.3870921E-17
   84.01950        1.3870363E-17
   84.18100        1.3879050E-17
   84.34250        1.3894272E-17
   84.50400        1.3907920E-17
   84.66550        1.3912683E-17
   84.82700        1.3907699E-17
   84.98850        1.3899326E-17
   85.15000        1.3896408E-17
   85.31150        1.3903591E-17
   85.47300        1.3917838E-17
   85.63450        1.3930767E-17
   85.79600        1.3935070E-17
   85.95750        1.3930090E-17
   86.11900        1.3922318E-17
   86.28050        1.3920426E-17
   86.44200        1.3928681E-17
   86.60350        1.3943724E-17
   86.76500        1.3957126E-17
   86.92650        1.3961753E-17
   87.08800        1.3957133E-17
   87.24950        1.3949786E-17
   87.41100        1.3948302E-17
   87.57250        1.3956880E-17
   87.73400        1.3972151E-17
   87.89550        1.3985679E-17
   88.05700        1.3990251E-17
   88.21850        1.3985268E-17
   88.38000        1.3977210E-17
   88.54150        1.3974814E-17
   88.70300        1.3982567E-17
   88.86450        1.3997367E-17
   89.02600        1.4010924E-17
   89.18750        1.4016084E-17
   89.34900        1.4012322E-17
   89.51050        1.4006178E-17
   89.67200        1.4006294E-17
   89.83350        1.4016779E-17
   89.99500        1.4034009E-17
   90.15650        1.4049305E-17
   90.31800        1.4055466E-17
   90.47950        1.4052159E-17
   90.64100        1.4046055E-17
   90.80250        1.4045623E-17
   90.96400        1.4054614E-17
   91.12550        1.4069239E-17
   91.28700        1.4081144E-17
   91.44850        1.4083853E-17
   91.61000        1.4077729E-17
   91.77150        1.4069677E-17
   91.93300        1.4067884E-17
   92.09450        1.4075593E-17
   92.25600        1.4088626E-17
   92.41750        1.4098523E-17
   92.57900        1.4098890E-17
   92.74050        1.4090200E-17
   92.90200        1.4079438E-17
   93.06350        1.4074862E-17
   93.22500        1.4079817E-17
   93.38650        1.4090262E-17
   93.54800        1.4097899E-17
   93.70950        1.4096584E-17
   93.87100        1.4087189E-17
   94.03250        1.4077190E-17
   94.19400        1.4075178E-17
   94.35550        1.4084411E-17
   94.51700        1.4100288E-17
   94.67850        1.4113721E-17
   94.84000        1.4117915E-17
   95.00150        1.4113410E-17
   95.16300        1.4107574E-17
   95.32450        1.4108881E-17
   95.48600        1.4120352E-17
   95.64750        1.4137142E-17
   95.80900        1.4150122E-17
   95.97050        1.4152764E-17
   96.13200        1.4146049E-17
   96.29350        1.4137729E-17
   96.45500        1.4136495E-17
   96.61650        1.4145478E-17
   96.77800        1.4159987E-17
   96.93950        1.4171147E-17
   97.10100        1.4172655E-17
   97.26250        1.4165554E-17
   97.42400        1.4157446E-17
   97.58550        1.4156746E-17
   97.74700        1.4166356E-17
   97.90850        1.4181525E-17
   98.07000        1.4193496E-17
   98.23150        1.4196176E-17
   98.39300        1.4190753E-17
   98.55450        1.4184753E-17
   98.71600        1.4186240E-17
   98.87750        1.4197586E-17
   99.03900        1.4213555E-17
   99.20050        1.4225185E-17
   99.36200        1.4226532E-17
   99.52350        1.4219109E-17
   99.68500        1.4210634E-17
   99.84650        1.4209042E-17
   100.0080        1.4216379E-17
   100.1695        1.4227275E-17
   100.3310        1.4233155E-17
   100.4925        1.4228951E-17
   100.6540        1.4217177E-17
   100.8155        1.4206197E-17
   100.9770        1.4204033E-17
   101.1385        1.4212401E-17
   101.3000        1.4225508E-17
   101.4615        1.4234511E-17
   101.6230        1.4234208E-17
   101.7845        1.4226944E-17
   101.9460        1.4220729E-17
   102.1075        1.4223056E-17
   102.2690        1.4235098E-17
   102.4305        1.4250673E-17
   102.5920        1.4260825E-17
   102.7535        1.4260589E-17
   102.9150        1.4252790E-17
   103.0765        1.4245987E-17
   103.2380        1.4248069E-17
   103.3995        1.4260309E-17
   103.5610        1.4276446E-17
   103.7225        1.4287474E-17
   103.8840        1.4288521E-17
   104.0455        1.4282531E-17
   104.2070        1.4277950E-17
   104.3685        1.4282172E-17
   104.5300        1.4295818E-17
   104.6915        1.4312250E-17
   104.8530        1.4322655E-17
   105.0145        1.4322788E-17
   105.1760        1.4316162E-17
   105.3375        1.4311320E-17
   105.4990        1.4315315E-17
   105.6605        1.4328426E-17
   105.8220        1.4344060E-17
   105.9835        1.4353855E-17
   106.1450        1.4353986E-17
   106.3065        1.4347924E-17
   106.4680        1.4343615E-17
   106.6295        1.4347319E-17
   106.7910        1.4358812E-17
   106.9525        1.4371573E-17
   107.1140        1.4377756E-17
   107.2755        1.4374149E-17
   107.4370        1.4364653E-17
   107.5985        1.4357382E-17
   107.7600        1.4358605E-17
   107.9215        1.4368099E-17
   108.0830        1.4379425E-17
   108.2445        1.4384907E-17
   108.4060        1.4381506E-17
   108.5675        1.4373097E-17
   108.7290        1.4367449E-17
   108.8905        1.4370213E-17
   109.0520        1.4380548E-17
   109.2135        1.4391748E-17
   109.3750        1.4396395E-17
   109.5365        1.4392061E-17
   109.6980        1.4383177E-17
   109.8595        1.4377640E-17
   110.0210        1.4380810E-17
   110.1825        1.4391500E-17
   110.3440        1.4402983E-17
   110.5055        1.4408163E-17
   110.6670        1.4404885E-17
   110.8285        1.4397375E-17
   110.9900        1.4392772E-17
   111.1515        1.4395545E-17
   111.3130        1.4404055E-17
   111.4745        1.4411844E-17
   111.6360        1.4412590E-17
   111.7975        1.4404917E-17
   111.9590        1.4393452E-17
   112.1205        1.4385427E-17
   112.2820        1.4385438E-17
   112.4435        1.4392261E-17
   112.6050        1.4400070E-17
   112.7665        1.4403034E-17
   112.9280        1.4399793E-17
   113.0895        1.4394450E-17
   113.2510        1.4393361E-17
   113.4125        1.4400232E-17
   113.5740        1.4413205E-17
   113.7355        1.4426189E-17
   113.8970        1.4433344E-17
   114.0585        1.4433379E-17
   114.2200        1.4430366E-17
   114.3815        1.4430518E-17
   114.5430        1.4437437E-17
   114.7045        1.4449439E-17
   114.8660        1.4460947E-17
   115.0275        1.4466793E-17
   115.1890        1.4466102E-17
   115.3505        1.4462818E-17
   115.5120        1.4462585E-17
   115.6735        1.4468439E-17
   115.8350        1.4478572E-17
   115.9965        1.4487792E-17
   116.1580        1.4491501E-17
   116.3195        1.4489147E-17
   116.4810        1.4484581E-17
   116.6425        1.4483165E-17
   116.8040        1.4487797E-17
   116.9655        1.4496883E-17
   117.1270        1.4505649E-17
   117.2885        1.4509787E-17
   117.4500        1.4508654E-17
   117.6115        1.4505641E-17
   117.7730        1.4505452E-17
   117.9345        1.4510414E-17
   118.0960        1.4518631E-17
   118.2575        1.4525427E-17
   118.4190        1.4526908E-17
   118.5805        1.4522929E-17
   118.7420        1.4517210E-17