  -27.90000        5.6765232E-18
  -27.73850        5.6776362E-18
  -27.57700        5.6792521E-18
  -27.41550        5.6807356E-18
  -27.25400        5.6819516E-18
  -27.09250        5.6832313E-18
  -26.93100        5.6848720E-18
  -26.76950        5.6867430E-18
  -26.60800        5.6884127E-18
  -26.44650        5.6896299E-18
  -26.28500        5.6906068E-18
  -26.12350        5.6917855E-18
  -25.96200        5.6933510E-18
  -25.80050        5.6950256E-18
  -25.63900        5.6963871E-18
  -25.47750        5.6973541E-18
  -25.31600        5.6982909E-18
  -25.15450        5.6995954E-18
  -24.99300        5.7012324E-18
  -24.83150        5.7027486E-18
  -24.67000        5.7037664E-18
  -24.50850        5.7044104E-18
  -24.34700        5.7051937E-18
  -24.18550        5.7064796E-18
  -24.02400        5.7081046E-18
  -23.86250        5.7095695E-18
  -23.70100        5.7105778E-18
  -23.53950        5.7113351E-18
  -23.37800        5.7122872E-18
  -23.21650        5.7135962E-18
  -23.05500        5.7149454E-18
  -22.89350        5.7159082E-18
  -22.73200        5.7164690E-18
  -22.57050        5.7170969E-18
  -22.40900        5.7182541E-18
  -22.24750        5.7198696E-18
  -22.08600        5.7213701E-18
  -21.92450        5.7222552E-18
  -21.76300        5.7226067E-18
  -21.60150        5.7229918E-18
  -21.44000        5.7238810E-18
  -21.27850        5.7252094E-18
  -21.11700        5.7265271E-18
  -20.95550        5.7275359E-18
  -20.79400        5.7284028E-18
  -20.63250        5.7295141E-18
  -20.47100        5.7309633E-18
  -20.30950        5.7323712E-18
  -20.14800        5.7332653E-18
  -19.98650        5.7336016E-18
  -19.82500        5.7338394E-18
  -19.66350        5.7344532E-18
  -19.50200        5.7354371E-18
  -19.34050        5.7363404E-18
  -19.17900        5.7368230E-18
  -19.01750        5.7370939E-18
  -18.85600        5.7377396E-18
  -18.69450        5.7391127E-18
  -18.53300        5.7409354E-18
  -18.37150        5.7425426E-18
  -18.21000        5.7435071E-18
  -18.04850        5.7440071E-18
  -17.88700        5.7445576E-18
  -17.72550        5.7454394E-18
  -17.56400        5.7464448E-18
  -17.40250        5.7472009E-18
  -17.24100        5.7476769E-18
  -17.07950        5.7482642E-18
  -16.91800        5.7493346E-18
  -16.75650        5.7507830E-18
  -16.59500        5.7521048E-18
  -16.43350        5.7529365E-18
  -16.27200        5.7534634E-18
  -16.11050        5.7542315E-18
  -15.94900        5.7555595E-18
  -15.78750        5.7572002E-18
  -15.62600        5.7586201E-18
  -15.46450        5.7595924E-18
  -15.30300        5.7604461E-18
  -15.14150        5.7616910E-18
  -14.98000        5.7634190E-18
  -14.81850        5.7651453E-18
  -14.65700        5.7662847E-18
  -14.49550        5.7667537E-18
  -14.33400        5.7670255E-18
  -14.17250        5.7675867E-18
  -14.01100        5.7683796E-18
  -13.84950        5.7688589E-18
  -13.68800        5.7685942E-18
  -13.52650        5.7677526E-18
  -13.36500        5.7669469E-18
  -13.20350        5.7666243E-18
  -13.04200        5.7666594E-18
  -12.88050        5.7665718E-18
  -12.71900        5.7661036E-18
  -12.55750        5.7655212E-18
  -12.39600        5.7653310E-18
  -12.23450        5.7657545E-18
  -12.07300        5.7665432E-18
  -11.91150        5.7673319E-18
  -11.75000        5.7680843E-18
  -11.58850        5.7690943E-18
  -11.42700        5.7705546E-18
  -11.26550        5.7722169E-18
  -11.10400        5.7735966E-18
  -10.94250        5.7745197E-18
  -10.78100        5.7753883E-18
  -10.61950        5.7768127E-18
  -10.45800        5.7789708E-18
  -10.29650        5.7813804E-18
  -10.13500        5.7833499E-18
  -9.973500        5.7846535E-18
  -9.812000        5.7857218E-18
  -9.650500        5.7871421E-18
  -9.489000        5.7889917E-18
  -9.327500        5.7907172E-18
  -9.166000        5.7916986E-18
  -9.004500        5.7918951E-18
  -8.843000        5.7919054E-18
  -8.681500        5.7923786E-18
  -8.520000        5.7934092E-18
  -8.358500        5.7945280E-18
  -8.197000        5.7952439E-18
  -8.035500        5.7955276E-18
  -7.874000        5.7957572E-18
  -7.712500        5.7962585E-18
  -7.551000        5.7969789E-18
  -7.389500        5.7976101E-18
  -7.228000        5.7979686E-18
  -7.066500        5.7981767E-18
  -6.905000        5.7984641E-18
  -6.743500        5.7988794E-18
  -6.582000        5.7992926E-18
  -6.420500        5.7996743E-18
  -6.259000        5.8002728E-18
  -6.097500        5.8013725E-18
  -5.936000        5.8028565E-18
  -5.774500        5.8041101E-18
  -5.613000        5.8044980E-18
  -5.451500        5.8039926E-18
  -5.290000        5.8032758E-18
  -5.128500        5.8031398E-18
  -4.967000        5.8037196E-18
  -4.805500        5.8043396E-18
  -4.644000        5.8041477E-18
  -4.482500        5.8029669E-18
  -4.321000        5.8015193E-18
  -4.159500        5.8008150E-18
  -3.998000        5.8012782E-18
  -3.836500        5.8024433E-18
  -3.675000        5.8034657E-18
  -3.513500        5.8039194E-18
  -3.352000        5.8040989E-18
  -3.190500        5.8046188E-18
  -3.029000        5.8057801E-18
  -2.867500        5.8073303E-18
  -2.706000        5.8087654E-18
  -2.544500        5.8097824E-18
  -2.383000        5.8104417E-18
  -2.221500        5.8109876E-18
  -2.060000        5.8116043E-18
  -1.898500        5.8123591E-18
  -1.737000        5.8132868E-18
  -1.575500        5.8144089E-18
  -1.414000        5.8156318E-18
  -1.252500        5.8167080E-18
  -1.091000        5.8174339E-18
 -0.9295000        5.8179277E-18
 -0.7680000        5.8186449E-18
 -0.6065000        5.8199754E-18
 -0.4450000        5.8217629E-18
 -0.2835000        5.8232986E-18
 -0.1220000        5.8239231E-18
  3.9500002E-02    5.8237171E-18
  0.2010000        5.8235699E-18
  0.3625000        5.8244397E-18
  0.5240000        5.8264398E-18
  0.6855000        5.8286202E-18
  0.8470000        5.8297167E-18
   1.008500        5.8292249E-18
   1.170000        5.8278361E-18
   1.331500        5.8268244E-18
   1.493000        5.8269497E-18
   1.654500        5.8278687E-18
   1.816000        5.8285470E-18
   1.977500        5.8282364E-18
   2.139000        5.8271135E-18
   2.300500        5.8260767E-18
   2.462000        5.8259857E-18
   2.623500        5.8270614E-18
   2.785000        5.8288655E-18
   2.946500        5.8307295E-18
   3.108000        5.8321908E-18
   3.269500        5.8331681E-18
   3.431000        5.8338914E-18
   3.592500        5.8347410E-18
   3.754000        5.8360549E-18
   3.915500        5.8379024E-18
   4.077000        5.8399270E-18
   4.238500        5.8414829E-18
   4.400000        5.8420991E-18
   4.561500        5.8419527E-18
   4.723000        5.8418605E-18
   4.884500        5.8426323E-18
   5.046000        5.8442966E-18
   5.207500        5.8459575E-18
   5.369000        5.8465270E-18
   5.530500        5.8457313E-18
   5.692000        5.8444339E-18
   5.853500        5.8439007E-18
   6.015000        5.8446543E-18
   6.176500        5.8459728E-18
   6.338000        5.8465361E-18
   6.499500        5.8456267E-18
   6.661000        5.8437924E-18
   6.822500        5.8423771E-18
   6.984000        5.8423816E-18
   7.145500        5.8436964E-18
   7.307000        5.8453231E-18
   7.468500        5.8462830E-18
   7.630000        5.8463405E-18
   7.791500        5.8460225E-18
   7.953000        5.8460870E-18
   8.114500        5.8469878E-18
   8.276000        5.8486864E-18
   8.437500        5.8507701E-18
   8.599000        5.8526751E-18
   8.760500        5.8539460E-18
   8.922000        5.8544994E-18
   9.083500        5.8547616E-18
   9.245000        5.8554722E-18
   9.406500        5.8571154E-18
   9.568000        5.8593922E-18
   9.729500        5.8612629E-18
   9.891000        5.8617062E-18
   10.05250        5.8606189E-18
   10.21400        5.8590175E-18
   10.37550        5.8582461E-18
   10.53700        5.8588541E-18
   10.69850        5.8601548E-18
   10.86000        5.8609072E-18
   11.02150        5.8604886E-18
   11.18300        5.8594799E-18
   11.34450        5.8591271E-18
   11.50600        5.8602169E-18
   11.66750        5.8623953E-18
   11.82900        5.8644955E-18
   11.99050        5.8655278E-18
   12.15200        5.8654149E-18
   12.31350        5.8649033E-18
   12.47500        5.8648383E-18
   12.63650        5.8655071E-18
   12.79800        5.8665237E-18
   12.95950        5.8672214E-18
   13.12100        5.8671267E-18
   13.28250        5.8662181E-18
   13.44400        5.8649024E-18
   13.60550        5.8638102E-18
   13.76700        5.8634797E-18
   13.92850        5.8640227E-18
   14.09000        5.8649748E-18
   14.25150        5.8655501E-18
   14.41300        5.8652288E-18
   14.57450        5.8642676E-18
   14.73600        5.8636348E-18
   14.89750        5.8643032E-18
   15.05900        5.8664116E-18
   15.22050        5.8690450E-18
   15.38200        5.8709189E-18
   15.54350        5.8714401E-18
   15.70500        5.8712283E-18
   15.86650        5.8715869E-18
   16.02800        5.8733591E-18
   16.18950        5.8761567E-18
   16.35100        5.8786353E-18
   16.51250        5.8795779E-18
   16.67400        5.8788421E-18
   16.83550        5.8774144E-18
   16.99700        5.8765760E-18
   17.15850        5.8769346E-18
   17.32000        5.8780931E-18
   17.48150        5.8791370E-18
   17.64300        5.8794439E-18
   17.80450        5.8791465E-18
   17.96600        5.8789542E-18
   18.12750        5.8795837E-18
   18.28900        5.8812537E-18
   18.45050        5.8835612E-18
   18.61200        5.8857309E-18
   18.77350        5.8870647E-18
   18.93500        5.8873625E-18
   19.09650        5.8870812E-18
   19.25800        5.8870932E-18
   19.41950        5.8881115E-18
   19.58100        5.8901344E-18
   19.74250        5.8923578E-18
   19.90400        5.8937363E-18
   20.06550        5.8938095E-18
   20.22700        5.8931333E-18
   20.38850        5.8928512E-18
   20.55000        5.8937057E-18
   20.71150        5.8953080E-18
   20.87300        5.8963684E-18
   21.03450        5.8957641E-18
   21.19600        5.8935274E-18
   21.35750        5.8908772E-18
   21.51900        5.8892410E-18
   21.68050        5.8891248E-18
   21.84200        5.8898022E-18
   22.00350        5.8900413E-18
   22.16500        5.8891843E-18
   22.32650        5.8876611E-18
   22.48800        5.8865576E-18
   22.64950        5.8867069E-18
   22.81100        5.8880780E-18
   22.97250        5.8898850E-18
   23.13400        5.8912043E-18
   23.29550        5.8915811E-18
   23.45700        5.8912254E-18
   23.61850        5.8908006E-18
   23.78000        5.8910017E-18
   23.94150        5.8921394E-18
   24.10300        5.8939253E-18
   24.26450        5.8956033E-18
   24.42600        5.8964598E-18
   24.58750        5.8964122E-18
   24.74900        5.8961947E-18
   24.91050        5.8968523E-18
   25.07200        5.8988425E-18
   25.23350        5.9015023E-18
   25.39500        5.9034333E-18
   25.55650        5.9036058E-18
   25.71800        5.9022687E-18
   25.87950        5.9008406E-18
   26.04100        5.9007909E-18
   26.20250        5.9024643E-18
   26.36400        5.9048569E-18
   26.52550        5.9065386E-18
   26.68700        5.9068765E-18
   26.84850        5.9064943E-18
   27.01000        5.9066201E-18
   27.17150        5.9079758E-18
   27.33300        5.9101711E-18
   27.49450        5.9120381E-18
   27.65600        5.9125332E-18
   27.81750        5.9114429E-18
   27.97900        5.9094358E-18
   28.14050        5.9075337E-18
   28.30200        5.9064757E-18
   28.46350        5.9063665E-18
   28.62500        5.9067379E-18
   28.78650        5.9069112E-18
   28.94800        5.9064617E-18
   29.10950        5.9055501E-18
   29.27100        5.9048859E-18
   29.43250        5.9052540E-18
   29.59400        5.9068732E-18
   29.75550        5.9091066E-18
   29.91700        5.9108631E-18
   30.07850        5.9114620E-18
   30.24000        5.9112469E-18
   30.40150        5.9113668E-18
   30.56300        5.9128272E-18
   30.72450        5.9156008E-18
   30.88600        5.9185902E-18
   31.04750        5.9205130E-18
   31.20900        5.9209708E-18
   31.37050        5.9207644E-18
   31.53200        5.9211677E-18
   31.69350        5.9227956E-18
   31.85500        5.9250513E-18
   32.01650        5.9266081E-18
   32.17800        5.9264790E-18
   32.33950        5.9247630E-18
   32.50100        5.9224982E-18
   32.66250        5.9208418E-18
   32.82400        5.9202607E-18
   32.98550        5.9203426E-18
   33.14700        5.9202586E-18
   33.30850        5.9194472E-18
   33.47000        5.9180145E-18
   33.63150        5.9166219E-18
   33.79300        5.9160102E-18
   33.95450        5.9164962E-18
   34.11600        5.9177274E-18
   34.27750        5.9188400E-18
   34.43900        5.9189554E-18
   34.60050        5.9177729E-18
   34.76200        5.9158551E-18
   34.92350        5.9143368E-18
   35.08500        5.9141524E-18
   35.24650        5.9153361E-18
   35.40800        5.9169805E-18
   35.56950        5.9179648E-18
   35.73100        5.9178900E-18
   35.89250        5.9174342E-18
   36.05400        5.9177820E-18
   36.21550        5.9195741E-18
   36.37700        5.9222864E-18
   36.53850        5.9246137E-18
   36.70000        5.9255534E-18
   36.86150        5.9252552E-18
   37.02300        5.9248846E-18
   37.18450        5.9256506E-18
   37.34600        5.9278616E-18
   37.50750        5.9307857E-18
   37.66900        5.9333496E-18
   37.83050        5.9349895E-18
   37.99200        5.9359631E-18
   38.15350        5.9369755E-18
   38.31500        5.9385339E-18
   38.47650        5.9405642E-18
   38.63800        5.9425003E-18
   38.79950        5.9436687E-18
   38.96100        5.9436720E-18
   39.12250        5.9425809E-18
   39.28400        5.9409071E-18
   39.44550        5.9393578E-18
   39.60700        5.9384231E-18
   39.76850        5.9380074E-18
   39.93000        5.9374358E-18
   40.09150        5.9359730E-18
   40.25300        5.9335299E-18
   40.41450        5.9309181E-18
   40.57600        5.9293067E-18
   40.73750        5.9292575E-18
   40.89900        5.9301707E-18
   41.06050        5.9307241E-18
   41.22200        5.9299867E-18
   41.38350        5.9282533E-18
   41.54500        5.9268368E-18
   41.70650        5.9269695E-18
   41.86800        5.9287790E-18
   42.02950        5.9312287E-18
   42.19100        5.9330464E-18
   42.35250        5.9337570E-18
   42.51400        5.9339365E-18
   42.67550        5.9345581E-18
   42.83700        5.9361057E-18
   42.99850        5.9382060E-18
   43.16000        5.9399741E-18
   43.32150        5.9406647E-18
   43.48300        5.9401126E-18
   43.64450        5.9387469E-18
   43.80600        5.9373188E-18
   43.96750        5.9365454E-18
   44.12900        5.9367985E-18
   44.29050        5.9379020E-18
   44.45200        5.9391862E-18
   44.61350        5.9399046E-18
   44.77500        5.9398214E-18
   44.93650        5.9395001E-18
   45.09800        5.9399145E-18
   45.25950        5.9415850E-18
   45.42100        5.9439921E-18
   45.58250        5.9458884E-18
   45.74400        5.9463400E-18
   45.90550        5.9455894E-18
   46.06700        5.9449086E-18
   46.22850        5.9455273E-18
   46.39000        5.9475717E-18
   46.55150        5.9499751E-18
   46.71300        5.9514231E-18
   46.87450        5.9514570E-18
   47.03600        5.9507671E-18
   47.19750        5.9504623E-18
   47.35900        5.9510690E-18
   47.52050        5.9521576E-18
   47.68200        5.9528413E-18
   47.84350        5.9525749E-18
   48.00500        5.9515426E-18
   48.16650        5.9504122E-18
   48.32800        5.9498167E-18
   48.48950        5.9500131E-18
   48.65100        5.9508589E-18
   48.81250        5.9519562E-18
   48.97400        5.9528516E-18
   49.13550        5.9532627E-18
   49.29700        5.9532946E-18
   49.45850        5.9534695E-18
   49.62000        5.9543819E-18
   49.78150        5.9561206E-18
   49.94300        5.9579594E-18
   50.10450        5.9587436E-18
   50.26600        5.9578250E-18
   50.42750        5.9557376E-18
   50.58900        5.9539050E-18
   50.75050        5.9534931E-18
   50.91200        5.9543918E-18
   51.07350        5.9552881E-18
   51.23500        5.9548166E-18
   51.39650        5.9527689E-18
   51.55800        5.9502820E-18
   51.71950        5.9488418E-18
   51.88100        5.9490172E-18
   52.04250        5.9500458E-18
   52.20400        5.9505826E-18
   52.36550        5.9498795E-18
   52.52700        5.9483670E-18
   52.68850        5.9472193E-18
   52.85000        5.9474096E-18
   53.01150        5.9490846E-18
   53.17300        5.9516427E-18
   53.33450        5.9542619E-18
   53.49600        5.9563804E-18
   53.65750        5.9578751E-18
   53.81900        5.9589864E-18
   53.98050        5.9601056E-18
   54.14200        5.9614932E-18
   54.30350        5.9630135E-18
   54.46500        5.9640971E-18
   54.62650        5.9640793E-18
   54.78800        5.9627757E-18
   54.94950        5.9608099E-18
   55.11100        5.9592800E-18
   55.27250        5.9589024E-18
   55.43400        5.9593586E-18
   55.59550        5.9595199E-18
   55.75700        5.9584760E-18
   55.91850        5.9564560E-18
   56.08000        5.9547578E-18
   56.24150        5.9546491E-18
   56.40300        5.9562294E-18
   56.56450        5.9583106E-18
   56.72600        5.9594496E-18
   56.88750        5.9592035E-18
   57.04900        5.9584872E-18
   57.21050        5.9587308E-18
   57.37200        5.9606283E-18
   57.53350        5.9635826E-18
   57.69500        5.9662631E-18
   57.85650        5.9676945E-18
   58.01800        5.9679141E-18
   58.17950        5.9677475E-18
   58.34100        5.9680477E-18
   58.50250        5.9690937E-18
   58.66400        5.9705165E-18
   58.82550        5.9716344E-18
   58.98700        5.9718747E-18
   59.14850        5.9710607E-18
   59.31000        5.9695371E-18
   59.47150        5.9680659E-18
   59.63300        5.9674476E-18
   59.79450        5.9679919E-18
   59.95600        5.9692112E-18
   60.11750        5.9700983E-18
   60.27900        5.9699060E-18
   60.44050        5.9688125E-18
   60.60200        5.9678116E-18
   60.76350        5.9678141E-18
   60.92500        5.9687376E-18
   61.08650        5.9694792E-18
   61.24800        5.9688791E-18
   61.40950        5.9668239E-18
   61.57100        5.9644354E-18
   61.73250        5.9631281E-18
   61.89400        5.9633940E-18
   62.05550        5.9644433E-18
   62.21700        5.9650029E-18
   62.37850        5.9644962E-18
   62.54000        5.9635061E-18
   62.70150        5.9631471E-18
   62.86300        5.9640148E-18
   63.02450        5.9656965E-18
   63.18600        5.9672073E-18
   63.34750        5.9678455E-18
   63.50900        5.9676627E-18
   63.67050        5.9672632E-18
   63.83200        5.9672665E-18
   63.99350        5.9679555E-18
   64.15500        5.9692641E-18
   64.31650        5.9709069E-18
   64.47800        5.9724769E-18
   64.63950        5.9735841E-18
   64.80100        5.9741180E-18
   64.96250        5.9744662E-18
   65.12400        5.9753530E-18
   65.28550        5.9772456E-18
   65.44700        5.9797945E-18
   65.60850        5.9819175E-18
   65.77000        5.9826169E-18
   65.93150        5.9818542E-18
   66.09300        5.9806267E-18
   66.25450        5.9800936E-18
   66.41600        5.9805237E-18
   66.57750        5.9810775E-18
   66.73900        5.9806519E-18
   66.90050        5.9789649E-18
   67.06200        5.9768295E-18
   67.22350        5.9753579E-18
   67.38500        5.9749187E-18
   67.54650        5.9748587E-18
   67.70800        5.9742152E-18
   67.86950        5.9726630E-18
   68.03100        5.9707783E-18
   68.19250        5.9694473E-18
   68.35400        5.9690850E-18
   68.51550        5.9694142E-18
   68.67700        5.9699068E-18
   68.83850        5.9703266E-18
   69.00000        5.9708395E-18
   69.16150        5.9716997E-18
   69.32300        5.9729492E-18
   69.48450        5.9744340E-18
   69.64600        5.9759899E-18
   69.80750        5.9774747E-18
   69.96900        5.9786336E-18
   70.13050        5.9790856E-18
   70.29200        5.9786323E-18
   70.45350        5.9776062E-18
   70.61500        5.9767910E-18
   70.77650        5.9768192E-18
   70.93800        5.9775707E-18
   71.09950        5.9782208E-18
   71.26100        5.9780020E-18
   71.42250        5.9769929E-18
   71.58400        5.9761367E-18
   71.74550        5.9764097E-18
   71.90700        5.9779123E-18
   72.06850        5.9797556E-18
   72.23000        5.9808637E-18
   72.39150        5.9808947E-18
   72.55300        5.9804145E-18
   72.71450        5.9802214E-18
   72.87600        5.9805559E-18
   73.03750        5.9809762E-18
   73.19900        5.9809199E-18
   73.36050        5.9803157E-18
   73.52200        5.9796225E-18
   73.68350        5.9793379E-18
   73.84500        5.9795526E-18
   74.00650        5.9799893E-18
   74.16800        5.9804071E-18
   74.32950        5.9808628E-18
   74.49100        5.9815597E-18
   74.65250        5.9825044E-18
   74.81400        5.9834188E-18
   74.97550        5.9840235E-18
   75.13700        5.9843362E-18
   75.29850        5.9846186E-18
   75.46000        5.9850318E-18
   75.62150        5.9854243E-18
   75.78300        5.9855319E-18
   75.94450        5.9853590E-18
   76.10600        5.9852651E-18
   76.26750        5.9855869E-18
   76.42900        5.9861779E-18
   76.59050        5.9864033E-18
   76.75200        5.9856869E-18
   76.91350        5.9840930E-18
   77.07500        5.9823298E-18
   77.23650        5.9811106E-18
   77.39800        5.9804898E-18
   77.55950        5.9798499E-18
   77.72100        5.9785682E-18
   77.88250        5.9766823E-18
   78.04400        5.9748831E-18
   78.20550        5.9738649E-18
   78.36700        5.9737040E-18
   78.52850        5.9738798E-18
   78.69000        5.9738579E-18
   78.85150        5.9736118E-18
   79.01300        5.9735630E-18
   79.17450        5.9740642E-18
   79.33600        5.9750180E-18
   79.49750        5.9760197E-18
   79.65900        5.9768312E-18
   79.82050        5.9776310E-18
   79.98200        5.9787734E-18
   80.14350        5.9803653E-18
   80.30500        5.9821549E-18
   80.46650        5.9838452E-18
   80.62800        5.9854545E-18
   80.78950        5.9872702E-18
   80.95100        5.9894614E-18
   81.11250        5.9917824E-18
   81.27400        5.9937383E-18
   81.43550        5.9950275E-18
   81.59700        5.9957641E-18
   81.75850        5.9962343E-18
   81.92000        5.9964647E-18
   82.08150        5.9961227E-18
   82.24300        5.9949121E-18
   82.40450        5.9930282E-18
   82.56600        5.9911381E-18
   82.72750        5.9898439E-18
   82.88900        5.9891677E-18
   83.05050        5.9886081E-18
   83.21200        5.9877392E-18
   83.37350        5.9867002E-18
   83.53500        5.9860517E-18
   83.69650        5.9861493E-18
   83.85800        5.9867118E-18
   84.01950        5.9870654E-18
   84.18100        5.9868094E-18
   84.34250        5.9862056E-18
   84.50400        5.9858871E-18
   84.66550        5.9861924E-18
   84.82700        5.9868289E-18
   84.98850        5.9871937E-18
   85.15000        5.9869856E-18
   85.31150        5.9864703E-18
   85.47300        5.9861452E-18
   85.63450        5.9862118E-18
   85.79600        5.9864227E-18
   85.95750        5.9864207E-18
   86.11900        5.9861324E-18
   86.28050        5.9857792E-18
   86.44200        5.9855546E-18
   86.60350        5.9853867E-18
   86.76500        5.9850831E-18
   86.92650        5.9846484E-18
   87.08800        5.9843506E-18
   87.24950        5.9844065E-18
   87.41100        5.9846468E-18
   87.57250        5.9845992E-18
   87.73400        5.9839813E-18
   87.89550        5.9830722E-18
   88.05700        5.9825259E-18
   88.21850        5.9827434E-18
   88.38000        5.9834449E-18
   88.54150        5.9839143E-18
   88.70300        5.9836980E-18
   88.86450        5.9830412E-18
   89.02600        5.9826260E-18
   89.18750        5.9828832E-18
   89.34900        5.9836128E-18
   89.51050        5.9842758E-18
   89.67200        5.9846182E-18
   89.83350        5.9849466E-18
   89.99500        5.9857713E-18
   90.15650        5.9872243E-18
   90.31800        5.9888811E-18
   90.47950        5.9901719E-18
   90.64100        5.9909395E-18
   90.80250        5.9915533E-18
   90.96400        5.9924740E-18
   91.12550        5.9937577E-18
   91.28700        5.9950142E-18
   91.44850        5.9958174E-18
   91.61000        5.9961119E-18
   91.77150        5.9961988E-18
   91.93300        5.9963725E-18
   92.09450        5.9966640E-18
   92.25600        5.9969308E-18
   92.41750        5.9971227E-18
   92.57900        5.9973572E-18
   92.74050        5.9977034E-18
   92.90200        5.9979722E-18
   93.06350        5.9978262E-18
   93.22500        5.9971550E-18
   93.38650        5.9962902E-18
   93.54800        5.9957529E-18
   93.70950        5.9957231E-18
   93.87100        5.9957736E-18
   94.03250        5.9952119E-18
   94.19400        5.9937342E-18
   94.35550        5.9917585E-18
   94.51700        5.9900900E-18
   94.67850        5.9892509E-18
   94.84000        5.9891280E-18
   95.00150        5.9892459E-18
   95.16300        5.9893216E-18
   95.32450        5.9895180E-18
   95.48600        5.9901566E-18
   95.64750        5.9912473E-18
   95.80900        5.9923755E-18
   95.97050        5.9930658E-18
   96.13200        5.9932230E-18
   96.29350        5.9931605E-18
   96.45500        5.9931746E-18
   96.61650        5.9931556E-18
   96.77800        5.9926766E-18
   96.93950        5.9914813E-18
   97.10100        5.9898439E-18
   97.26250        5.9883997E-18
   97.42400        5.9876110E-18
   97.58550        5.9874120E-18
   97.74700        5.9873562E-18
   97.90850        5.9870779E-18
   98.07000        5.9865782E-18
   98.23150        5.9860927E-18
   98.39300        5.9857651E-18
   98.55450        5.9855356E-18
   98.71600        5.9853449E-18
   98.87750        5.9853586E-18
   99.03900        5.9858801E-18
   99.20050        5.9870071E-18
   99.36200        5.9884477E-18
   99.52350        5.9897654E-18
   99.68500        5.9908333E-18
   99.84650        5.9919752E-18
   100.0080        5.9936089E-18
   100.1695        5.9957252E-18
   100.3310        5.9977795E-18
   100.4925        5.9991377E-18
   100.6540        5.9996299E-18
   100.8155        5.9996464E-18
   100.9770        5.9996771E-18
   101.1385        5.9997949E-18
   101.3000        5.9996477E-18
   101.4615        5.9989599E-18
   101.6230        5.9979718E-18
   101.7845        5.9972952E-18
   101.9460        5.9972927E-18
   102.1075        5.9976500E-18
   102.2690        5.9976161E-18
   102.4305        5.9967104E-18
   102.5920        5.9951726E-18
   102.7535        5.9937139E-18
   102.9150        5.9928239E-18
   103.0765        5.9923429E-18
   103.2380        5.9916910E-18
   103.3995        5.9904846E-18
   103.5610        5.9889196E-18
   103.7225        5.9876006E-18
   103.8840        5.9870576E-18
   104.0455        5.9874468E-18
   104.2070        5.9886301E-18
   104.3685        5.9903791E-18
   104.5300        5.9924264E-18
   104.6915        5.9943723E-18
   104.8530        5.9957430E-18
   105.0145        5.9962947E-18
   105.1760        5.9962641E-18
   105.3375        5.9962095E-18
   105.4990        5.9964688E-18
   105.6605        5.9967712E-18
   105.8220        5.9964581E-18
   105.9835        5.9951718E-18
   106.1450        5.9933388E-18
   106.3065        5.9919053E-18
   106.4680        5.9915235E-18
   106.6295        5.9919578E-18
   106.7910        5.9923234E-18
   106.9525        5.9919198E-18
   107.1140        5.9908548E-18
   107.2755        5.9898584E-18
   107.4370        5.9895110E-18
   107.5985        5.9896938E-18
   107.7600        5.9897811E-18
   107.9215        5.9893352E-18
   108.0830        5.9885693E-18
   108.2445        5.9881350E-18
   108.4060        5.9885097E-18
   108.5675        5.9896049E-18
   108.7290        5.9909147E-18
   108.8905        5.9919735E-18
   109.0520        5.9926344E-18
   109.2135        5.9929938E-18
   109.3750        5.9931837E-18
   109.5365        5.9933024E-18
   109.6980        5.9934769E-18
   109.8595        5.9938504E-18
   110.0210        5.9943972E-18
   110.1825        5.9948128E-18
   110.3440        5.9947400E-18
   110.5055        5.9942003E-18
   110.6670        5.9937925E-18
   110.8285        5.9943087E-18
   110.9900        5.9960267E-18
   111.1515        5.9983515E-18
   111.3130        6.0002139E-18
   111.4745        6.0009331E-18
   111.6360        6.0007586E-18
   111.7975        6.0005733E-18
   111.9590        6.0010436E-18
   112.1205        6.0020134E-18
   112.2820        6.0026963E-18
   112.4435        6.0024440E-18
   112.6050        6.0013393E-18
   112.7665        6.0000820E-18
   112.9280        5.9993516E-18
   113.0895        5.9992701E-18
   113.2510        5.9994281E-18
   113.4125        5.9993329E-18
   113.5740        5.9987932E-18
   113.7355        5.9979222E-18
   113.8970        5.9968808E-18
   114.0585        5.9956954E-18
   114.2200        5.9943111E-18
   114.3815        5.9927250E-18
   114.5430        5.9910082E-18
   114.7045        5.9892327E-18
   114.8660        5.9874600E-18
   115.0275        5.9858631E-18
   115.1890        5.9848077E-18
   115.3505        5.9846848E-18
   115.5120        5.9855550E-18
   115.6735        5.9869654E-18
   115.8350        5.9882268E-18
   115.9965        5.9889853E-18
   116.1580        5.9895582E-18
   116.3195        5.9906467E-18
   116.4810        5.9926167E-18
   116.6425        5.9950320E-18
   116.8040        5.9969279E-18
   116.9655        5.9976161E-18
   117.1270        5.9972906E-18
   117.2885        5.9968485E-18
   117.4500        5.9970934E-18
   117.6115        5.9980541E-18
   117.7730        5.9990186E-18
   117.9345        5.9991952E-18
   118.0960        5.9983581E-18
   118.2575        5.9969308E-18
   118.4190        5.9955234E-18
   118.5805        5.9944538E-18
   118.7420        5.9936606E-18