  -27.90000        9.3070979E-18
  -27.73850        9.3353337E-18
  -27.57700        9.3749392E-18
  -27.41550        9.4047317E-18
  -27.25400        9.4140036E-18
  -27.09250        9.4095079E-18
  -26.93100        9.4096601E-18
  -26.76950        9.4302850E-18
  -26.60800        9.4723918E-18
  -26.44650        9.5209183E-18
  -26.28500        9.5553779E-18
  -26.12350        9.5646266E-18
  -25.96200        9.5549593E-18
  -25.80050        9.5456072E-18
  -25.63900        9.5549138E-18
  -25.47750        9.5872301E-18
  -25.31600        9.6300408E-18
  -25.15450        9.6633332E-18
  -24.99300        9.6743190E-18
  -24.83150        9.6667246E-18
  -24.67000        9.6579143E-18
  -24.50850        9.6660190E-18
  -24.34700        9.6965602E-18
  -24.18550        9.7383833E-18
  -24.02400        9.7718676E-18
  -23.86250        9.7833604E-18
  -23.70100        9.7752152E-18
  -23.53950        9.7640788E-18
  -23.37800        9.7686697E-18
  -23.21650        9.7960378E-18
  -23.05500        9.8363744E-18
  -22.89350        9.8701854E-18
  -22.73200        9.8825526E-18
  -22.57050        9.8740302E-18
  -22.40900        9.8601964E-18
  -22.24750        9.8601881E-18
  -22.08600        9.8826750E-18
  -21.92450        9.9195582E-18
  -21.76300        9.9520399E-18
  -21.60150        9.9646155E-18
  -21.44000        9.9566837E-18
  -21.27850        9.9432081E-18
  -21.11700        9.9438616E-18
  -20.95550        9.9685479E-18
  -20.79400        1.0009923E-17
  -20.63250        1.0048454E-17
  -20.47100        1.0066413E-17
  -20.30950        1.0060605E-17
  -20.14800        1.0044561E-17
  -19.98650        1.0038541E-17
  -19.82500        1.0054681E-17
  -19.66350        1.0088142E-17
  -19.50200        1.0120798E-17
  -19.34050        1.0134758E-17
  -19.17900        1.0125831E-17
  -19.01750        1.0107010E-17
  -18.85600        1.0099329E-17
  -18.69450        1.0116698E-17
  -18.53300        1.0155750E-17
  -18.37150        1.0198105E-17
  -18.21000        1.0223471E-17
  -18.04850        1.0224034E-17
  -17.88700        1.0209724E-17
  -17.72550        1.0200581E-17
  -17.56400        1.0211848E-17
  -17.40250        1.0242717E-17
  -17.24100        1.0276951E-17
  -17.07950        1.0294925E-17
  -16.91800        1.0288263E-17
  -16.75650        1.0266354E-17
  -16.59500        1.0249947E-17
  -16.43350        1.0256459E-17
  -16.27200        1.0287674E-17
  -16.11050        1.0328748E-17
  -15.94900        1.0359190E-17
  -15.78750        1.0367745E-17
  -15.62600        1.0360315E-17
  -15.46450        1.0355185E-17
  -15.30300        1.0369151E-17
  -15.14150        1.0404765E-17
  -14.98000        1.0448109E-17
  -14.81850        1.0478703E-17
  -14.65700        1.0484283E-17
  -14.49550        1.0469605E-17
  -14.33400        1.0452846E-17
  -14.17250        1.0452256E-17
  -14.01100        1.0472872E-17
  -13.84950        1.0503041E-17
  -13.68800        1.0523263E-17
  -13.52650        1.0520829E-17
  -13.36500        1.0499456E-17
  -13.20350        1.0476834E-17
  -13.04200        1.0471881E-17
  -12.88050        1.0491090E-17
  -12.71900        1.0524015E-17
  -12.55750        1.0551202E-17
  -12.39600        1.0558726E-17
  -12.23450        1.0548598E-17
  -12.07300        1.0537332E-17
  -11.91150        1.0543703E-17
  -11.75000        1.0574660E-17
  -11.58850        1.0619805E-17
  -11.42700        1.0658532E-17
  -11.26550        1.0674676E-17
  -11.10400        1.0667951E-17
  -10.94250        1.0653820E-17
  -10.78100        1.0651884E-17
  -10.61950        1.0671337E-17
  -10.45800        1.0704162E-17
  -10.29650        1.0731103E-17
  -10.13500        1.0736057E-17
  -9.973500        1.0718295E-17
  -9.812000        1.0693513E-17
  -9.650500        1.0682808E-17
  -9.489000        1.0697593E-17
  -9.327500        1.0731426E-17
  -9.166000        1.0764738E-17
  -9.004500        1.0779030E-17
  -8.843000        1.0770184E-17
  -8.681500        1.0751217E-17
  -8.520000        1.0742496E-17
  -8.358500        1.0756612E-17
  -8.197000        1.0789026E-17
  -8.035500        1.0821343E-17
  -7.874000        1.0834819E-17
  -7.712500        1.0824224E-17
  -7.551000        1.0801892E-17
  -7.389500        1.0788996E-17
  -7.228000        1.0800386E-17
  -7.066500        1.0834038E-17
  -6.905000        1.0872750E-17
  -6.743500        1.0896792E-17
  -6.582000        1.0898203E-17
  -6.420500        1.0886302E-17
  -6.259000        1.0880457E-17
  -6.097500        1.0895517E-17
  -5.936000        1.0930638E-17
  -5.774500        1.0969708E-17
  -5.613000        1.0993033E-17
  -5.451500        1.0991665E-17
  -5.290000        1.0973881E-17
  -5.128500        1.0959084E-17
  -4.967000        1.0963645E-17
  -4.805500        1.0989072E-17
  -4.644000        1.1021177E-17
  -4.482500        1.1040734E-17
  -4.321000        1.1037783E-17
  -4.159500        1.1019005E-17
  -3.998000        1.1002802E-17
  -3.836500        1.1005725E-17
  -3.675000        1.1030272E-17
  -3.513500        1.1063052E-17
  -3.352000        1.1084652E-17
  -3.190500        1.1083946E-17
  -3.029000        1.1066283E-17
  -2.867500        1.1049500E-17
  -2.706000        1.1050715E-17
  -2.544500        1.1073598E-17
  -2.383000        1.1105532E-17
  -2.221500        1.1126789E-17
  -2.060000        1.1124980E-17
  -1.898500        1.1104175E-17
  -1.737000        1.1081976E-17
  -1.575500        1.1076696E-17
  -1.414000        1.1094067E-17
  -1.252500        1.1123267E-17
  -1.091000        1.1145164E-17
 -0.9295000        1.1146707E-17
 -0.7680000        1.1130860E-17
 -0.6065000        1.1114733E-17
 -0.4450000        1.1117234E-17
 -0.2835000        1.1145229E-17
 -0.1220000        1.1188332E-17
  3.9500002E-02    1.1226150E-17
  0.2010000        1.1242706E-17
  0.3625000        1.1237579E-17
  0.5240000        1.1225661E-17
  0.6855000        1.1225799E-17
  0.8470000        1.1246641E-17
   1.008500        1.1280099E-17
   1.170000        1.1307191E-17
   1.331500        1.1312032E-17
   1.493000        1.1293734E-17
   1.654500        1.1267461E-17
   1.816000        1.1253848E-17
   1.977500        1.1264437E-17
   2.139000        1.1293739E-17
   2.300500        1.1323653E-17
   2.462000        1.1336927E-17
   2.623500        1.1329784E-17
   2.785000        1.1314481E-17
   2.946500        1.1310026E-17
   3.108000        1.1327930E-17
   3.269500        1.1363505E-17
   3.431000        1.1399074E-17
   3.592500        1.1416696E-17
   3.754000        1.1411061E-17
   3.915500        1.1393140E-17
   4.077000        1.1382004E-17
   4.238500        1.1390847E-17
   4.400000        1.1417455E-17
   4.561500        1.1446029E-17
   4.723000        1.1458959E-17
   4.884500        1.1449851E-17
   5.046000        1.1428261E-17
   5.207500        1.1412680E-17
   5.369000        1.1416955E-17
   5.530500        1.1440172E-17
   5.692000        1.1467398E-17
   5.853500        1.1480775E-17
   6.015000        1.1472754E-17
   6.176500        1.1451727E-17
   6.338000        1.1435900E-17
   6.499500        1.1439910E-17
   6.661000        1.1464041E-17
   6.822500        1.1493999E-17
   6.984000        1.1511421E-17
   7.145500        1.1507364E-17
   7.307000        1.1488863E-17
   7.468500        1.1473735E-17
   7.630000        1.1477457E-17
   7.791500        1.1501774E-17
   7.953000        1.1533422E-17
   8.114500        1.1553942E-17
   8.276000        1.1553372E-17
   8.437500        1.1537749E-17
   8.599000        1.1524862E-17
   8.760500        1.1531290E-17
   8.922000        1.1560212E-17
   9.083500        1.1598899E-17
   9.245000        1.1627779E-17
   9.406500        1.1634489E-17
   9.568000        1.1622653E-17
   9.729500        1.1608962E-17
   9.891000        1.1610718E-17
   10.05250        1.1632966E-17
   10.21400        1.1664687E-17
   10.37550        1.1686874E-17
   10.53700        1.1686592E-17
   10.69850        1.1666726E-17
   10.86000        1.1644249E-17
   11.02150        1.1638218E-17
   11.18300        1.1656197E-17
   11.34450        1.1688984E-17
   11.50600        1.1717470E-17
   11.66750        1.1726586E-17
   11.82900        1.1716152E-17
   11.99050        1.1700705E-17
   12.15200        1.1698497E-17
   12.31350        1.1717773E-17
   12.47500        1.1750417E-17
   12.63650        1.1777692E-17
   12.79800        1.1783861E-17
   12.95950        1.1767727E-17
   13.12100        1.1743602E-17
   13.28250        1.1731015E-17
   13.44400        1.1740686E-17
   13.60550        1.1767073E-17
   13.76700        1.1792866E-17
   13.92850        1.1802060E-17
   14.09000        1.1791920E-17
   14.25150        1.1775013E-17
   14.41300        1.1769871E-17
   14.57450        1.1787191E-17
   14.73600        1.1821772E-17
   14.89750        1.1856156E-17
   15.05900        1.1873279E-17
   15.22050        1.1868813E-17
   15.38200        1.1854109E-17
   15.54350        1.1847622E-17
   15.70500        1.1861088E-17
   15.86650        1.1890706E-17
   16.02800        1.1919813E-17
   16.18950        1.1931126E-17
   16.35100        1.1919541E-17
   16.51250        1.1896017E-17
   16.67400        1.1879613E-17
   16.83550        1.1883541E-17
   16.99700        1.1905530E-17
   17.15850        1.1929688E-17
   17.32000        1.1938539E-17
   17.48150        1.1926343E-17
   17.64300        1.1903772E-17
   17.80450        1.1890371E-17
   17.96600        1.1900290E-17
   18.12750        1.1931812E-17
   18.28900        1.1968456E-17
   18.45050        1.1990895E-17
   18.61200        1.1990924E-17
   18.77350        1.1977163E-17
   18.93500        1.1968326E-17
   19.09650        1.1979048E-17
   19.25800        1.2008767E-17
   19.41950        1.2041907E-17
   19.58100        1.2059251E-17
   19.74250        1.2052153E-17
   19.90400        1.2029095E-17
   20.06550        1.2009749E-17
   20.22700        1.2010849E-17
   20.38850        1.2034218E-17
   20.55000        1.2065685E-17
   20.71150        1.2085639E-17
   20.87300        1.2083465E-17
   21.03450        1.2065234E-17
   21.19600        1.2049046E-17
   21.35750        1.2051490E-17
   21.51900        1.2075243E-17
   21.68050        1.2106986E-17
   21.84200        1.2127166E-17
   22.00350        1.2124401E-17
   22.16500        1.2103899E-17
   22.32650        1.2083688E-17
   22.48800        1.2081485E-17
   22.64950        1.2101872E-17
   22.81100        1.2133237E-17
   22.97250        1.2156605E-17
   23.13400        1.2159764E-17
   23.29550        1.2146199E-17
   23.45700        1.2132283E-17
   23.61850        1.2134900E-17
   23.78000        1.2158749E-17
   23.94150        1.2192740E-17
   24.10300        1.2218116E-17
   24.26450        1.2222250E-17
   24.42600        1.2207876E-17
   24.58750        1.2190961E-17
   24.74900        1.2188836E-17
   24.91050        1.2207431E-17
   25.07200        1.2237033E-17
   25.23350        1.2259668E-17
   25.39500        1.2262555E-17
   25.55650        1.2247633E-17
   25.71800        1.2230115E-17
   25.87950        1.2227187E-17
   26.04100        1.2245271E-17
   26.20250        1.2275287E-17
   26.36400        1.2299419E-17
   26.52550        1.2304327E-17
   26.68700        1.2291039E-17
   26.84850        1.2274185E-17
   27.01000        1.2271168E-17
   27.17150        1.2289275E-17
   27.33300        1.2320217E-17
   27.49450        1.2346129E-17
   27.65600        1.2352586E-17
   27.81750        1.2339066E-17
   27.97900        1.2319189E-17
   28.14050        1.2310564E-17
   28.30200        1.2321793E-17
   28.46350        1.2346186E-17
   28.62500        1.2366838E-17
   28.78650        1.2369311E-17
   28.94800        1.2352554E-17
   29.10950        1.2330003E-17
   29.27100        1.2320041E-17
   29.43250        1.2332800E-17
   29.59400        1.2362980E-17
   29.75550        1.2393901E-17
   29.91700        1.2409722E-17
   30.07850        1.2406817E-17
   30.24000        1.2396007E-17
   30.40150        1.2394094E-17
   30.56300        1.2411058E-17
   30.72450        1.2442383E-17
   30.88600        1.2472121E-17
   31.04750        1.2484391E-17
   31.20900        1.2474870E-17
   31.37050        1.2453868E-17
   31.53200        1.2438830E-17
   31.69350        1.2441800E-17
   31.85500        1.2461021E-17
   32.01650        1.2482725E-17
   32.17800        1.2491674E-17
   32.33950        1.2482618E-17
   32.50100        1.2464270E-17
   32.66250        1.2452901E-17
   32.82400        1.2460343E-17
   32.98550        1.2485267E-17
   33.14700        1.2514176E-17
   33.30850        1.2531347E-17
   33.47000        1.2530368E-17
   33.63150        1.2518748E-17
   33.79300        1.2512215E-17
   33.95450        1.2522974E-17
   34.11600        1.2550643E-17
   34.27750        1.2582545E-17
   34.43900        1.2603069E-17
   34.60050        1.2605090E-17
   34.76200        1.2594979E-17
   34.92350        1.2587565E-17
   35.08500        1.2594885E-17
   35.24650        1.2617098E-17
   35.40800        1.2642290E-17
   35.56950        1.2655278E-17
   35.73100        1.2648846E-17
   35.89250        1.2629164E-17
   36.05400        1.2611407E-17
   36.21550        1.2608824E-17
   36.37700        1.2623260E-17
   36.53850        1.2644055E-17
   36.70000        1.2656079E-17
   36.86150        1.2650995E-17
   37.02300        1.2633462E-17
   37.18450        1.2617735E-17
   37.34600        1.2617123E-17
   37.50750        1.2634100E-17
   37.66900        1.2658376E-17
   37.83050        1.2674400E-17
   37.99200        1.2672835E-17
   38.15350        1.2657527E-17
   38.31500        1.2642790E-17
   38.47650        1.2642988E-17
   38.63800        1.2662056E-17
   38.79950        1.2690665E-17
   38.96100        1.2713073E-17
   39.12250        1.2718562E-17
   39.28400        1.2709029E-17
   39.44550        1.2697205E-17
   39.60700        1.2696950E-17
   39.76850        1.2712831E-17
   39.93000        1.2736681E-17
   40.09150        1.2753606E-17
   40.25300        1.2752984E-17
   40.41450        1.2736365E-17
   40.57600        1.2716562E-17
   40.73750        1.2708618E-17
   40.89900        1.2719278E-17
   41.06050        1.2742564E-17
   41.22200        1.2764571E-17
   41.38350        1.2773849E-17
   41.54500        1.2769733E-17
   41.70650        1.2762552E-17
   41.86800        1.2765672E-17
   42.02950        1.2785283E-17
   42.19100        1.2815527E-17
   42.35250        1.2842508E-17
   42.51400        1.2854261E-17
   42.67550        1.2849314E-17
   42.83700        1.2837577E-17
   42.99850        1.2832959E-17
   43.16000        1.2843191E-17
   43.32150        1.2864321E-17
   43.48300        1.2883882E-17
   43.64450        1.2890302E-17
   43.80600        1.2881546E-17
   43.96750        1.2866616E-17
   44.12900        1.2858849E-17
   44.29050        1.2866020E-17
   44.45200        1.2884618E-17
   44.61350        1.2902529E-17
   44.77500        1.2908128E-17
   44.93650        1.2899028E-17
   45.09800        1.2883992E-17
   45.25950        1.2876598E-17
   45.42100        1.2885349E-17
   45.58250        1.2907493E-17
   45.74400        1.2931101E-17
   45.90550        1.2943797E-17
   46.06700        1.2941685E-17
   46.22850        1.2931935E-17
   46.39000        1.2927179E-17
   46.55150        1.2935910E-17
   46.71300        1.2955964E-17
   46.87450        1.2975909E-17
   47.03600        1.2983323E-17
   47.19750        1.2973941E-17
   47.35900        1.2954983E-17
   47.52050        1.2940160E-17
   47.68200        1.2939988E-17
   47.84350        1.2954383E-17
   48.00500        1.2972987E-17
   48.16650        1.2982947E-17
   48.32800        1.2978478E-17
   48.48950        1.2965159E-17
   48.65100        1.2955810E-17
   48.81250        1.2960965E-17
   48.97400        1.2981013E-17
   49.13550        1.3005820E-17
   49.29700        1.3022122E-17
   49.45850        1.3023216E-17
   49.62000        1.3013813E-17
   49.78150        1.3006507E-17
   49.94300        1.3012530E-17
   50.10450        1.3033592E-17
   50.26600        1.3060732E-17
   50.42750        1.3080881E-17
   50.58900        1.3086251E-17
   50.75050        1.3079688E-17
   50.91200        1.3072188E-17
   51.07350        1.3074539E-17
   51.23500        1.3089252E-17
   51.39650        1.3108684E-17
   51.55800        1.3120657E-17
   51.71950        1.3117467E-17
   51.88100        1.3101666E-17
   52.04250        1.3084418E-17
   52.20400        1.3077612E-17
   52.36550        1.3085488E-17
   52.52700        1.3101898E-17
   52.68850        1.3115185E-17
   52.85000        1.3117007E-17
   53.01150        1.3108576E-17
   53.17300        1.3099685E-17
   53.33450        1.3101264E-17
   53.49600        1.3117060E-17
   53.65750        1.3140663E-17
   53.81900        1.3160084E-17
   53.98050        1.3166478E-17
   54.14200        1.3160528E-17
   54.30350        1.3151783E-17
   54.46500        1.3151514E-17
   54.62650        1.3164393E-17
   54.78800        1.3185113E-17
   54.94950        1.3202372E-17
   55.11100        1.3207209E-17
   55.27250        1.3199564E-17
   55.43400        1.3188271E-17
   55.59550        1.3184534E-17
   55.75700        1.3193685E-17
   55.91850        1.3211232E-17
   56.08000        1.3226129E-17
   56.24150        1.3228881E-17
   56.40300        1.3218613E-17
   56.56450        1.3203916E-17
   56.72600        1.3196810E-17
   56.88750        1.3204134E-17
   57.04900        1.3222664E-17
   57.21050        1.3241531E-17
   57.37200        1.3250196E-17
   57.53350        1.3246161E-17
   57.69500        1.3236734E-17
   57.85650        1.3233537E-17
   58.01800        1.3243787E-17
   58.17950        1.3264774E-17
   58.34100        1.3285627E-17
   58.50250        1.3295093E-17
   58.66400        1.3289651E-17
   58.82550        1.3276045E-17
   58.98700        1.3266390E-17
   59.14850        1.3269431E-17
   59.31000        1.3284338E-17
   59.47150        1.3301481E-17
   59.63300        1.3309608E-17
   59.79450        1.3304131E-17
   59.95600        1.3290512E-17
   60.11750        1.3280271E-17
   60.27900        1.3282554E-17
   60.44050        1.3297419E-17
   60.60200        1.3315776E-17
   60.76350        1.3326037E-17
   60.92500        1.3322635E-17
   61.08650        1.3310175E-17
   61.24800        1.3300159E-17
   61.40950        1.3302664E-17
   61.57100        1.3319033E-17
   61.73250        1.3340952E-17
   61.89400        1.3356575E-17
   62.05550        1.3359203E-17
   62.21700        1.3352108E-17
   62.37850        1.3345935E-17
   62.54000        1.3350618E-17
   62.70150        1.3367760E-17
   62.86300        1.3389190E-17
   63.02450        1.3402820E-17
   63.18600        1.3401552E-17
   63.34750        1.3388631E-17
   63.50900        1.3375451E-17
   63.67050        1.3373338E-17
   63.83200        1.3385367E-17
   63.99350        1.3404291E-17
   64.15500        1.3418107E-17
   64.31650        1.3419162E-17
   64.47800        1.3409977E-17
   64.63950        1.3401424E-17
   64.80100        1.3404557E-17
   64.96250        1.3422179E-17
   65.12400        1.3446462E-17
   65.28550        1.3464448E-17
   65.44700        1.3467425E-17
   65.60850        1.3457250E-17
   65.77000        1.3444952E-17
   65.93150        1.3442617E-17
   66.09300        1.3454498E-17
   66.25450        1.3473896E-17
   66.41600        1.3488145E-17
   66.57750        1.3488062E-17
   66.73900        1.3474901E-17
   66.90050        1.3459641E-17
   67.06200        1.3455025E-17
   67.22350        1.3466165E-17
   67.38500        1.3486681E-17
   67.54650        1.3503306E-17
   67.70800        1.3505693E-17
   67.86950        1.3494175E-17
   68.03100        1.3479681E-17
   68.19250        1.3475764E-17
   68.35400        1.3488602E-17
   68.51550        1.3512406E-17
   68.67700        1.3533693E-17
   68.83850        1.3541256E-17
   69.00000        1.3534424E-17
   69.16150        1.3523448E-17
   69.32300        1.3521735E-17
   69.48450        1.3535725E-17
   69.64600        1.3559943E-17
   69.80750        1.3580927E-17
   69.96900        1.3587104E-17
   70.13050        1.3577305E-17
   70.29200        1.3561619E-17
   70.45350        1.3553984E-17
   70.61500        1.3561984E-17
   70.77650        1.3581366E-17
   70.93800        1.3599316E-17
   71.09950        1.3604054E-17
   71.26100        1.3593632E-17
   71.42250        1.3577410E-17
   71.58400        1.3569067E-17
   71.74550        1.3576352E-17
   71.90700        1.3595187E-17
   72.06850        1.3612591E-17
   72.23000        1.3616299E-17
   72.39150        1.3603942E-17
   72.55300        1.3584918E-17
   72.71450        1.3573501E-17
   72.87600        1.3578310E-17
   73.03750        1.3595991E-17
   73.19900        1.3613860E-17
   73.36050        1.3619527E-17
   73.52200        1.3610277E-17
   73.68350        1.3595161E-17
   73.84500        1.3588197E-17
   74.00650        1.3597771E-17
   74.16800        1.3620169E-17
   74.32950        1.3642119E-17
   74.49100        1.3650506E-17
   74.65250        1.3642041E-17
   74.81400        1.3625687E-17
   74.97550        1.3616012E-17
   75.13700        1.3622397E-17
   75.29850        1.3642112E-17
   75.46000        1.3662442E-17
   75.62150        1.3670308E-17
   75.78300        1.3662212E-17
   75.94450        1.3647089E-17
   76.10600        1.3639821E-17
   76.26750        1.3650211E-17
   76.42900        1.3675589E-17
   76.59050        1.3702633E-17
   76.75200        1.3717100E-17
   76.91350        1.3714288E-17
   77.07500        1.3702431E-17
   77.23650        1.3696476E-17
   77.39800        1.3706852E-17
   77.55950        1.3731611E-17
   77.72100        1.3757823E-17
   77.88250        1.3771190E-17
   78.04400        1.3766727E-17
   78.20550        1.3752546E-17
   78.36700        1.3743864E-17
   78.52850        1.3751730E-17
   78.69000        1.3774830E-17
   78.85150        1.3800497E-17
   79.01300        1.3814159E-17
   79.17450        1.3810191E-17
   79.33600        1.3796070E-17
   79.49750        1.3786767E-17
   79.65900        1.3793544E-17
   79.82050        1.3815547E-17
   79.98200        1.3840438E-17
   80.14350        1.3853570E-17
   80.30500        1.3848846E-17
   80.46650        1.3833118E-17
   80.62800        1.3820868E-17
   80.78950        1.3823179E-17
   80.95100        1.3839278E-17
   81.11250        1.3856992E-17
   81.27400        1.3861813E-17
   81.43550        1.3847775E-17
   81.59700        1.3822019E-17
   81.75850        1.3799611E-17
   81.92000        1.3792500E-17
   82.08150        1.3800872E-17
   82.24300        1.3813386E-17
   82.40450        1.3816074E-17
   82.56600        1.3803203E-17
   82.72750        1.3781893E-17
   82.88900        1.3766952E-17
   83.05050        1.3769807E-17
   83.21200        1.3789803E-17
   83.37350        1.3814499E-17
   83.53500        1.3828772E-17
   83.69650        1.3825942E-17
   83.85800        1.3812575E-17
   84.01950        1.3803375E-17
   84.18100        1.3809975E-17
   84.34250        1.3832086E-17
   84.50400        1.3857619E-17
   84.66550        1.3871725E-17
   84.82700        1.3867959E-17
   84.98850        1.3853167E-17
   85.15000        1.3842429E-17
   85.31150        1.3847803E-17
   85.47300        1.3869280E-17
   85.63450        1.3894740E-17
   85.79600        1.3908943E-17
   85.95750        1.3904855E-17
   86.11900        1.3888877E-17
   86.28050        1.3876042E-17
   86.44200        1.3878810E-17
   86.60350        1.3897817E-17
   86.76500        1.3921494E-17
   86.92650        1.3934833E-17
   87.08800        1.3930693E-17
   87.24950        1.3915166E-17
   87.41100        1.3903005E-17
   87.57250        1.3906547E-17
   87.73400        1.3926481E-17
   87.89550        1.3951344E-17
   88.05700        1.3966134E-17
   88.21850        1.3963494E-17
   88.38000        1.3949126E-17
   88.54150        1.3937404E-17
   88.70300        1.3940551E-17
   88.86450        1.3959510E-17
   89.02600        1.3983374E-17
   89.18750        1.3997668E-17
   89.34900        1.3995241E-17
   89.51050        1.3981558E-17
   89.67200        1.3970477E-17
   89.83350        1.3973734E-17
   89.99500        1.3992063E-17
   90.15650        1.4014663E-17
   90.31800        1.4027372E-17
   90.47950        1.4023363E-17
   90.64100        1.4008333E-17
   90.80250        1.3996247E-17
   90.96400        1.3998900E-17
   91.12550        1.4017141E-17
   91.28700        1.4040335E-17
   91.44850        1.4054465E-17
   91.61000        1.4052675E-17
   91.77150        1.4040312E-17
   91.93300        1.4030659E-17
   92.09450        1.4034651E-17
   92.25600        1.4052396E-17
   92.41750        1.4072893E-17
   92.57900        1.4082174E-17
   92.74050        1.4073682E-17
   92.90200        1.4053117E-17
   93.06350        1.4034163E-17
   93.22500        1.4028348E-17
   93.38650        1.4036689E-17
   93.54800        1.4049333E-17
   93.70950        1.4053367E-17
   93.87100        1.4042850E-17
   94.03250        1.4023529E-17
   94.19400        1.4008737E-17
   94.35550        1.4009579E-17
   94.51700        1.4026780E-17
   94.67850        1.4050225E-17
   94.84000        1.4066517E-17
   95.00150        1.4068842E-17
   95.16300        1.4061794E-17
   95.32450        1.4057595E-17
   95.48600        1.4066612E-17
   95.64750        1.4089348E-17
   95.80900        1.4115879E-17
   95.97050        1.4133109E-17
   96.13200        1.4134378E-17
   96.29350        1.4124192E-17
   96.45500        1.4114633E-17
   96.61650        1.4116209E-17
   96.77800        1.4130063E-17
   96.93950        1.4147339E-17
   97.10100        1.4156084E-17
   97.26250        1.4150379E-17
   97.42400        1.4134874E-17
   97.58550        1.4121368E-17
   97.74700        1.4120135E-17
   97.90850        1.4132490E-17
   98.07000        1.4150109E-17
   98.23150        1.4161458E-17
   98.39300        1.4160440E-17
   98.55450        1.4150779E-17
   98.71600        1.4142977E-17
   98.87750        1.4146253E-17
   99.03900        1.4161539E-17
   99.20050        1.4180761E-17
   99.36200        1.4192800E-17
   99.52350        1.4191666E-17
   99.68500        1.4180779E-17
   99.84650        1.4170219E-17
   100.0080        1.4169152E-17
   100.1695        1.4179073E-17
   100.3310        1.4192877E-17
   100.4925        1.4200363E-17
   100.6540        1.4195945E-17
   100.8155        1.4182816E-17
   100.9770        1.4170519E-17
   101.1385        1.4167812E-17
   101.3000        1.4176175E-17
   101.4615        1.4188809E-17
   101.6230        1.4195821E-17
   101.7845        1.4191655E-17
   101.9460        1.4179234E-17
   102.1075        1.4167779E-17
   102.2690        1.4166001E-17
   102.4305        1.4175760E-17
   102.5920        1.4190910E-17
   102.7535        1.4202074E-17
   102.9150        1.4203743E-17
   103.0765        1.4198398E-17
   103.2380        1.4194605E-17
   103.3995        1.4200578E-17
   103.5610        1.4218011E-17
   103.7225        1.4240698E-17
   103.8840        1.4258959E-17
   104.0455        1.4266518E-17
   104.2070        1.4264826E-17
   104.3685        1.4261705E-17
   104.5300        1.4265380E-17
   104.6915        1.4278295E-17
   104.8530        1.4295282E-17
   105.0145        1.4307364E-17
   105.1760        1.4308418E-17
   105.3375        1.4299754E-17
   105.4990        1.4289269E-17
   105.6605        1.4285778E-17
   105.8220        1.4292675E-17
   105.9835        1.4305594E-17
   106.1450        1.4315768E-17
   106.3065        1.4316634E-17
   106.4680        1.4308744E-17
   106.6295        1.4299397E-17
   106.7910        1.4297228E-17
   106.9525        1.4305824E-17
   107.1140        1.4321072E-17
   107.2755        1.4334175E-17
   107.4370        1.4338086E-17
   107.5985        1.4332544E-17
   107.7600        1.4324022E-17
   107.9215        1.4320700E-17
   108.0830        1.4326211E-17
   108.2445        1.4336852E-17
   108.4060        1.4344290E-17
   108.5675        1.4341770E-17
   108.7290        1.4329222E-17
   108.8905        1.4313502E-17
   109.0520        1.4303574E-17
   109.2135        1.4304161E-17
   109.3750        1.4312536E-17
   109.5365        1.4320839E-17
   109.6980        1.4322191E-17
   109.8595        1.4316043E-17
   110.0210        1.4308716E-17
   110.1825        1.4308641E-17
   110.3440        1.4319848E-17
   110.5055        1.4338580E-17
   110.6670        1.4355721E-17
   110.8285        1.4363272E-17
   110.9900        1.4360109E-17
   111.1515        1.4352629E-17
   111.3130        1.4349795E-17
   111.4745        1.4356287E-17
   111.6360        1.4368926E-17
   111.7975        1.4379107E-17
   111.9590        1.4379382E-17
   112.1205        1.4369260E-17
   112.2820        1.4355782E-17
   112.4435        1.4348445E-17
   112.6050        1.4352209E-17
   112.7665        1.4363884E-17
   112.9280        1.4374545E-17
   113.0895        1.4376255E-17
   113.2510        1.4368038E-17
   113.4125        1.4356666E-17
   113.5740        1.4351670E-17
   113.7355        1.4358264E-17
   113.8970        1.4373506E-17
   114.0585        1.4388555E-17
   114.2200        1.4395358E-17
   114.3815        1.4392721E-17
   114.5430        1.4387190E-17
   114.7045        1.4388037E-17
   114.8660        1.4400126E-17
   115.0275        1.4420087E-17
   115.1890        1.4438676E-17
   115.3505        1.4447586E-17
   115.5120        1.4445558E-17
   115.6735        1.4439156E-17
   115.8350        1.4437665E-17
   115.9965        1.4445988E-17
   116.1580        1.4460935E-17
   116.3195        1.4473702E-17
   116.4810        1.4476604E-17
   116.6425        1.4468936E-17
   116.8040        1.4457506E-17
   116.9655        1.4451462E-17
   117.1270        1.4455367E-17
   117.2885        1.4465794E-17
   117.4500        1.4474028E-17
   117.6115        1.4472799E-17
   117.7730        1.4461948E-17
   117.9345        1.4448675E-17
   118.0960        1.4442249E-17
   118.2575        1.4447144E-17
   118.4190        1.4459857E-17
   118.5805        1.4471735E-17
   118.7420        1.4475676E-17