  -27.90000       -1.2787762E-18
  -27.73850       -1.2809244E-18
  -27.57700       -1.2839336E-18
  -27.41550       -1.2861910E-18
  -27.25400       -1.2868868E-18
  -27.09250       -1.2865421E-18
  -26.93100       -1.2865564E-18
  -26.76950       -1.2881279E-18
  -26.60800       -1.2913253E-18
  -26.44650       -1.2950024E-18
  -26.28500       -1.2976103E-18
  -26.12350       -1.2983090E-18
  -25.96200       -1.2975773E-18
  -25.80050       -1.2968704E-18
  -25.63900       -1.2975754E-18
  -25.47750       -1.3000239E-18
  -25.31600       -1.3032701E-18
  -25.15450       -1.3057971E-18
  -24.99300       -1.3066309E-18
  -24.83150       -1.3060510E-18
  -24.67000       -1.3053768E-18
  -24.50850       -1.3059896E-18
  -24.34700       -1.3083108E-18
  -24.18550       -1.3114873E-18
  -24.02400       -1.3140236E-18
  -23.86250       -1.3148857E-18
  -23.70100       -1.3142649E-18
  -23.53950       -1.3134351E-18
  -23.37800       -1.3138121E-18
  -23.21650       -1.3159105E-18
  -23.05500       -1.3189671E-18
  -22.89350       -1.3215061E-18
  -22.73200       -1.3224228E-18
  -22.57050       -1.3217881E-18
  -22.40900       -1.3207852E-18
  -22.24750       -1.3208355E-18
  -22.08600       -1.3225598E-18
  -21.92450       -1.3253290E-18
  -21.76300       -1.3277411E-18
  -21.60150       -1.3286583E-18
  -21.44000       -1.3280526E-18
  -21.27850       -1.3270364E-18
  -21.11700       -1.3270577E-18
  -20.95550       -1.3288465E-18
  -20.79400       -1.3318696E-18
  -20.63250       -1.3347028E-18
  -20.47100       -1.3360514E-18
  -20.30950       -1.3356769E-18
  -20.14800       -1.3345646E-18
  -19.98650       -1.3342046E-18
  -19.82500       -1.3354982E-18
  -19.66350       -1.3380920E-18
  -19.50200       -1.3406368E-18
  -19.34050       -1.3417863E-18
  -19.17900       -1.3412165E-18
  -19.01750       -1.3398962E-18
  -18.85600       -1.3394039E-18
  -18.69450       -1.3407771E-18
  -18.53300       -1.3437414E-18
  -18.37150       -1.3468856E-18
  -18.21000       -1.3486770E-18
  -18.04850       -1.3485578E-18
  -17.88700       -1.3473190E-18
  -17.72550       -1.3464867E-18
  -17.56400       -1.3471802E-18
  -17.40250       -1.3492951E-18
  -17.24100       -1.3515998E-18
  -17.07950       -1.3526659E-18
  -16.91800       -1.3519407E-18
  -16.75650       -1.3501815E-18
  -16.59500       -1.3489453E-18
  -16.43350       -1.3495032E-18
  -16.27200       -1.3519593E-18
  -16.11050       -1.3551997E-18
  -15.94900       -1.3576974E-18
  -15.78750       -1.3585963E-18
  -15.62600       -1.3583036E-18
  -15.46450       -1.3581591E-18
  -15.30300       -1.3594247E-18
  -15.14150       -1.3623178E-18
  -14.98000       -1.3658067E-18
  -14.81850       -1.3683209E-18
  -14.65700       -1.3688853E-18
  -14.49550       -1.3678311E-18
  -14.33400       -1.3665546E-18
  -14.17250       -1.3664868E-18
  -14.01100       -1.3680415E-18
  -13.84950       -1.3703303E-18
  -13.68800       -1.3718558E-18
  -13.52650       -1.3716591E-18
  -13.36500       -1.3700606E-18
  -13.20350       -1.3684278E-18
  -13.04200       -1.3681657E-18
  -12.88050       -1.3696838E-18
  -12.71900       -1.3721198E-18
  -12.55750       -1.3740129E-18
  -12.39600       -1.3744062E-18
  -12.23450       -1.3735529E-18
  -12.07300       -1.3727102E-18
  -11.91150       -1.3731955E-18
  -11.75000       -1.3754061E-18
  -11.58850       -1.3785165E-18
  -11.42700       -1.3810632E-18
  -11.26550       -1.3819858E-18
  -11.10400       -1.3813696E-18
  -10.94250       -1.3803586E-18
  -10.78100       -1.3803035E-18
  -10.61950       -1.3817621E-18
  -10.45800       -1.3840788E-18
  -10.29650       -1.3858526E-18
  -10.13500       -1.3859710E-18
  -9.973500       -1.3844686E-18
  -9.812000       -1.3825711E-18
  -9.650500       -1.3818598E-18
  -9.489000       -1.3831394E-18
  -9.327500       -1.3858381E-18
  -9.166000       -1.3884013E-18
  -9.004500       -1.3894196E-18
  -8.843000       -1.3886644E-18
  -8.681500       -1.3872617E-18
  -8.520000       -1.3868541E-18
  -8.358500       -1.3883628E-18
  -8.197000       -1.3912845E-18
  -8.035500       -1.3940537E-18
  -7.874000       -1.3952123E-18
  -7.712500       -1.3945070E-18
  -7.551000       -1.3930917E-18
  -7.389500       -1.3926829E-18
  -7.228000       -1.3943134E-18
  -7.066500       -1.3976066E-18
  -6.905000       -1.4010853E-18
  -6.743500       -1.4032599E-18
  -6.582000       -1.4036776E-18
  -6.420500       -1.4031925E-18
  -6.259000       -1.4032785E-18
  -6.097500       -1.4049221E-18
  -5.936000       -1.4078890E-18
  -5.774500       -1.4108910E-18
  -5.613000       -1.4125135E-18
  -5.451500       -1.4122211E-18
  -5.290000       -1.4107386E-18
  -5.128500       -1.4095282E-18
  -4.967000       -1.4097426E-18
  -4.805500       -1.4113963E-18
  -4.644000       -1.4133554E-18
  -4.482500       -1.4141810E-18
  -4.321000       -1.4132167E-18
  -4.159500       -1.4111098E-18
  -3.998000       -1.4093567E-18
  -3.836500       -1.4091769E-18
  -3.675000       -1.4105693E-18
  -3.513500       -1.4122819E-18
  -3.352000       -1.4127487E-18
  -3.190500       -1.4113028E-18
  -3.029000       -1.4087301E-18
  -2.867500       -1.4067140E-18
  -2.706000       -1.4065693E-18
  -2.544500       -1.4082390E-18
  -2.383000       -1.4103325E-18
  -2.221500       -1.4111850E-18
  -2.060000       -1.4101203E-18
  -1.898500       -1.4079645E-18
  -1.737000       -1.4064261E-18
  -1.575500       -1.4068326E-18
  -1.414000       -1.4091608E-18
  -1.252500       -1.4120692E-18
  -1.091000       -1.4138981E-18
 -0.9295000       -1.4138922E-18
 -0.7680000       -1.4127580E-18
 -0.6065000       -1.4121680E-18
 -0.4450000       -1.4135716E-18
 -0.2835000       -1.4171528E-18
 -0.1220000       -1.4216682E-18
  3.9500002E-02   -1.4252955E-18
  0.2010000       -1.4268906E-18
  0.3625000       -1.4267857E-18
  0.5240000       -1.4265288E-18
  0.6855000       -1.4277284E-18
  0.8470000       -1.4308330E-18
   1.008500       -1.4347469E-18
   1.170000       -1.4376151E-18
   1.331500       -1.4381997E-18
   1.493000       -1.4368328E-18
   1.654500       -1.4352022E-18
   1.816000       -1.4351096E-18
   1.977500       -1.4371281E-18
   2.139000       -1.4401894E-18
   2.300500       -1.4424139E-18
   2.462000       -1.4425554E-18
   2.623500       -1.4409521E-18
   2.785000       -1.4392530E-18
   2.946500       -1.4391415E-18
   3.108000       -1.4410571E-18
   3.269500       -1.4438658E-18
   3.431000       -1.4457257E-18
   3.592500       -1.4454773E-18
   3.754000       -1.4435074E-18
   3.915500       -1.4414546E-18
   4.077000       -1.4409848E-18
   4.238500       -1.4425528E-18
   4.400000       -1.4450751E-18
   4.561500       -1.4467448E-18
   4.723000       -1.4463862E-18
   4.884500       -1.4443496E-18
   5.046000       -1.4422877E-18
   5.207500       -1.4419640E-18
   5.369000       -1.4439446E-18
   5.530500       -1.4471358E-18
   5.692000       -1.4495230E-18
   5.853500       -1.4496152E-18
   6.015000       -1.4475459E-18
   6.176500       -1.4450061E-18
   6.338000       -1.4440155E-18
   6.499500       -1.4454105E-18
   6.661000       -1.4481726E-18
   6.822500       -1.4501293E-18
   6.984000       -1.4495584E-18
   7.145500       -1.4465123E-18
   7.307000       -1.4428463E-18
   7.468500       -1.4408930E-18
   7.630000       -1.4417461E-18
   7.791500       -1.4444628E-18
   7.953000       -1.4468008E-18
   8.114500       -1.4469376E-18
   8.276000       -1.4448685E-18
   8.437500       -1.4424202E-18
   8.599000       -1.4418719E-18
   8.760500       -1.4442356E-18
   8.922000       -1.4484919E-18
   9.083500       -1.4523469E-18
   9.245000       -1.4539272E-18
   9.406500       -1.4531385E-18
   9.568000       -1.4516753E-18
   9.729500       -1.4517108E-18
   9.891000       -1.4542513E-18
   10.05250       -1.4583859E-18
   10.21400       -1.4619589E-18
   10.37550       -1.4631740E-18
   10.53700       -1.4619351E-18
   10.69850       -1.4599350E-18
   10.86000       -1.4594142E-18
   11.02150       -1.4614899E-18
   11.18300       -1.4652935E-18
   11.34450       -1.4685885E-18
   11.50600       -1.4694331E-18
   11.66750       -1.4676672E-18
   11.82900       -1.4650994E-18
   11.99050       -1.4642061E-18
   12.15200       -1.4662829E-18
   12.31350       -1.4704160E-18
   12.47500       -1.4740951E-18
   12.63650       -1.4750618E-18
   12.79800       -1.4730230E-18
   12.95950       -1.4699195E-18
   13.12100       -1.4685042E-18
   13.28250       -1.4702768E-18
   13.44400       -1.4743416E-18
   13.60550       -1.4780637E-18
   13.76700       -1.4790523E-18
   13.92850       -1.4769801E-18
   14.09000       -1.4738558E-18
   14.25150       -1.4725356E-18
   14.41300       -1.4745876E-18
   14.57450       -1.4791169E-18
   14.73600       -1.4834277E-18
   14.89750       -1.4850062E-18
   15.05900       -1.4833334E-18
   15.22050       -1.4802066E-18
   15.38200       -1.4783650E-18
   15.54350       -1.4794585E-18
   15.70500       -1.4828505E-18
   15.86650       -1.4861151E-18
   16.02800       -1.4868413E-18
   16.18950       -1.4844221E-18
   16.35100       -1.4805079E-18
   16.51250       -1.4778010E-18
   16.67400       -1.4780724E-18
   16.83550       -1.4808586E-18
   16.99700       -1.4838051E-18
   17.15850       -1.4844224E-18
   17.32000       -1.4819811E-18
   17.48150       -1.4781033E-18
   17.64300       -1.4755817E-18
   17.80450       -1.4762700E-18
   17.96600       -1.4796357E-18
   18.12750       -1.4831179E-18
   18.28900       -1.4840629E-18
   18.45050       -1.4817738E-18
   18.61200       -1.4781026E-18
   18.77350       -1.4760984E-18
   18.93500       -1.4777102E-18
   19.09650       -1.4822873E-18
   19.25800       -1.4870402E-18
   19.41950       -1.4891250E-18
   19.58100       -1.4877890E-18
   19.74250       -1.4849345E-18
   19.90400       -1.4836824E-18
   20.06550       -1.4860116E-18
   20.22700       -1.4912568E-18
   20.38850       -1.4965670E-18
   20.55000       -1.4989858E-18
   20.71150       -1.4976054E-18
   20.87300       -1.4942204E-18
   21.03450       -1.4920089E-18
   21.19600       -1.4932086E-18
   21.35750       -1.4974803E-18
   21.51900       -1.5021539E-18
   21.68050       -1.5041668E-18
   21.84200       -1.5022975E-18
   22.00350       -1.4980644E-18
   22.16500       -1.4946469E-18
   22.32650       -1.4945879E-18
   22.48800       -1.4979513E-18
   22.64950       -1.5022911E-18
   22.81100       -1.5044792E-18
   22.97250       -1.5030553E-18
   23.13400       -1.4993458E-18
   23.29550       -1.4964834E-18
   23.45700       -1.4970452E-18
   23.61850       -1.5010859E-18
   23.78000       -1.5060708E-18
   23.94150       -1.5087750E-18
   24.10300       -1.5077200E-18
   24.26450       -1.5042810E-18
   24.42600       -1.5016215E-18
   24.58750       -1.5022654E-18
   24.74900       -1.5061754E-18
   24.91050       -1.5108097E-18
   25.07200       -1.5130817E-18
   25.23350       -1.5117103E-18
   25.39500       -1.5081748E-18
   25.55650       -1.5055739E-18
   25.71800       -1.5062895E-18
   25.87950       -1.5102124E-18
   26.04100       -1.5148390E-18
   26.20250       -1.5171325E-18
   26.36400       -1.5157584E-18
   26.52550       -1.5120545E-18
   26.68700       -1.5090364E-18
   26.84850       -1.5091862E-18
   27.01000       -1.5126317E-18
   27.17150       -1.5170288E-18
   27.33300       -1.5192409E-18
   27.49450       -1.5176182E-18
   27.65600       -1.5132319E-18
   27.81750       -1.5091445E-18
   27.97900       -1.5082035E-18
   28.14050       -1.5109546E-18
   28.30200       -1.5152207E-18
   28.46350       -1.5177010E-18
   28.62500       -1.5164366E-18
   28.78650       -1.5123112E-18
   28.94800       -1.5084402E-18
   29.10950       -1.5078790E-18
   29.27100       -1.5113631E-18
   29.43250       -1.5167754E-18
   29.59400       -1.5207550E-18
   29.75550       -1.5212161E-18
   29.91700       -1.5188742E-18
   30.07850       -1.5166223E-18
   30.24000       -1.5172859E-18
   30.40150       -1.5214711E-18
   30.56300       -1.5271267E-18
   30.72450       -1.5310836E-18
   30.88600       -1.5313814E-18
   31.04750       -1.5286375E-18
   31.20900       -1.5255099E-18
   31.37050       -1.5246906E-18
   31.53200       -1.5269617E-18
   31.69350       -1.5306863E-18
   31.85500       -1.5330729E-18
   32.01650       -1.5322401E-18
   32.17800       -1.5285989E-18
   32.33950       -1.5245646E-18
   32.50100       -1.5228308E-18
   32.66250       -1.5244229E-18
   32.82400       -1.5279407E-18
   32.98550       -1.5305669E-18
   33.14700       -1.5301437E-18
   33.30850       -1.5268165E-18
   33.47000       -1.5230176E-18
   33.63150       -1.5217323E-18
   33.79300       -1.5243050E-18
   33.95450       -1.5294087E-18
   34.11600       -1.5339798E-18
   34.27750       -1.5354703E-18
   34.43900       -1.5337364E-18
   34.60050       -1.5311390E-18
   34.76200       -1.5307569E-18
   34.92350       -1.5340548E-18
   35.08500       -1.5397697E-18
   35.24650       -1.5448333E-18
   35.40800       -1.5466285E-18
   35.56950       -1.5448809E-18
   35.73100       -1.5417908E-18
   35.89250       -1.5403657E-18
   36.05400       -1.5422086E-18
   36.21550       -1.5463905E-18
   36.37700       -1.5501797E-18
   36.53850       -1.5510520E-18
   36.70000       -1.5485043E-18
   36.86150       -1.5443798E-18
   37.02300       -1.5415078E-18
   37.18450       -1.5416669E-18
   37.34600       -1.5443322E-18
   37.50750       -1.5470873E-18
   37.66900       -1.5474016E-18
   37.83050       -1.5444966E-18
   37.99200       -1.5399442E-18
   38.15350       -1.5365497E-18
   38.31500       -1.5362920E-18
   38.47650       -1.5388376E-18
   38.63800       -1.5417501E-18
   38.79950       -1.5423007E-18
   38.96100       -1.5395513E-18
   39.12250       -1.5351317E-18
   39.28400       -1.5320757E-18
   39.44550       -1.5325443E-18
   39.60700       -1.5361634E-18
   39.76850       -1.5402705E-18
   39.93000       -1.5419345E-18
   40.09150       -1.5402124E-18
   40.25300       -1.5369067E-18
   40.41450       -1.5352246E-18
   40.57600       -1.5373578E-18
   40.73750       -1.5428285E-18
   40.89900       -1.5488373E-18
   41.06050       -1.5523206E-18
   41.22200       -1.5521537E-18
   41.38350       -1.5498931E-18
   41.54500       -1.5485600E-18
   41.70650       -1.5504126E-18
   41.86800       -1.5553252E-18
   42.02950       -1.5608988E-18
   42.19100       -1.5641793E-18
   42.35250       -1.5637444E-18
   42.51400       -1.5607027E-18
   42.67550       -1.5579143E-18
   42.83700       -1.5579705E-18
   42.99850       -1.5613342E-18
   43.16000       -1.5659754E-18
   43.32150       -1.5688140E-18
   43.48300       -1.5679728E-18
   43.64450       -1.5641971E-18
   43.80600       -1.5603247E-18
   43.96750       -1.5591673E-18
   44.12900       -1.5613834E-18
   44.29050       -1.5649980E-18
   44.45200       -1.5669624E-18
   44.61350       -1.5655368E-18
   44.77500       -1.5616285E-18
   44.93650       -1.5580441E-18
   45.09800       -1.5572804E-18
   45.25950       -1.5596240E-18
   45.42100       -1.5630287E-18
   45.58250       -1.5647838E-18
   45.74400       -1.5636137E-18
   45.90550       -1.5605837E-18
   46.06700       -1.5582024E-18
   46.22850       -1.5585038E-18
   46.39000       -1.5615595E-18
   46.55150       -1.5654812E-18
   46.71300       -1.5678250E-18
   46.87450       -1.5673525E-18
   47.03600       -1.5649039E-18
   47.19750       -1.5627873E-18
   47.35900       -1.5631163E-18
   47.52050       -1.5662635E-18
   47.68200       -1.5705302E-18
   47.84350       -1.5733157E-18
   48.00500       -1.5729990E-18
   48.16650       -1.5701842E-18
   48.32800       -1.5673321E-18
   48.48950       -1.5669747E-18
   48.65100       -1.5697941E-18
   48.81250       -1.5740467E-18
   48.97400       -1.5768162E-18
   49.13550       -1.5761925E-18
   49.29700       -1.5727062E-18
   49.45850       -1.5689184E-18
   49.62000       -1.5674851E-18
   49.78150       -1.5691856E-18
   49.94300       -1.5724086E-18
   50.10450       -1.5744232E-18
   50.26600       -1.5734285E-18
   50.42750       -1.5698253E-18
   50.58900       -1.5658117E-18
   50.75050       -1.5637247E-18
   50.91200       -1.5644035E-18
   51.07350       -1.5667500E-18
   51.23500       -1.5686843E-18
   51.39650       -1.5687141E-18
   51.55800       -1.5669736E-18
   51.71950       -1.5650597E-18
   51.88100       -1.5648458E-18
   52.04250       -1.5671629E-18
   52.20400       -1.5712456E-18
   52.36550       -1.5753051E-18
   52.52700       -1.5778005E-18
   52.68850       -1.5784919E-18
   52.85000       -1.5785318E-18
   53.01150       -1.5795216E-18
   53.17300       -1.5822222E-18
   53.33450       -1.5858922E-18
   53.49600       -1.5887897E-18
   53.65750       -1.5894890E-18
   53.81900       -1.5880090E-18
   53.98050       -1.5858425E-18
   54.14200       -1.5848366E-18
   54.30350       -1.5857883E-18
   54.46500       -1.5878697E-18
   54.62650       -1.5893444E-18
   54.78800       -1.5889926E-18
   54.94950       -1.5871017E-18
   55.11100       -1.5852542E-18
   55.27250       -1.5850834E-18
   55.43400       -1.5870078E-18
   55.59550       -1.5899173E-18
   55.75700       -1.5920227E-18
   55.91850       -1.5921644E-18
   56.08000       -1.5905889E-18
   56.24150       -1.5886633E-18
   56.40300       -1.5878264E-18
   56.56450       -1.5885851E-18
   56.72600       -1.5902501E-18
   56.88750       -1.5915125E-18
   57.04900       -1.5913904E-18
   57.21050       -1.5898753E-18
   57.37200       -1.5878675E-18
   57.53350       -1.5865102E-18
   57.69500       -1.5863972E-18
   57.85650       -1.5872090E-18
   58.01800       -1.5879914E-18
   58.17950       -1.5878669E-18
   58.34100       -1.5866685E-18
   58.50250       -1.5850523E-18
   58.66400       -1.5840027E-18
   58.82550       -1.5841174E-18
   58.98700       -1.5852104E-18
   59.14850       -1.5865364E-18
   59.31000       -1.5874258E-18
   59.47150       -1.5877914E-18
   59.63300       -1.5880995E-18
   59.79450       -1.5888694E-18
   59.95600       -1.5901884E-18
   60.11750       -1.5916677E-18
   60.27900       -1.5928476E-18
   60.44050       -1.5936533E-18
   60.60200       -1.5944486E-18
   60.76350       -1.5956598E-18
   60.92500       -1.5973478E-18
   61.08650       -1.5991614E-18
   61.24800       -1.6007028E-18
   61.40950       -1.6019272E-18
   61.57100       -1.6031675E-18
   61.73250       -1.6047423E-18
   61.89400       -1.6065493E-18
   62.05550       -1.6080431E-18
   62.21700       -1.6086485E-18
   62.37850       -1.6082361E-18
   62.54000       -1.6072304E-18
   62.70150       -1.6062641E-18
   62.86300       -1.6056776E-18
   63.02450       -1.6052972E-18
   63.18600       -1.6046606E-18
   63.34750       -1.6034935E-18
   63.50900       -1.6020455E-18
   63.67050       -1.6010064E-18
   63.83200       -1.6010600E-18
   63.99350       -1.6023730E-18
   64.15500       -1.6043859E-18
   64.31650       -1.6060916E-18
   64.47800       -1.6066780E-18
   64.63950       -1.6061144E-18
   64.80100       -1.6052302E-18
   64.96250       -1.6051210E-18
   65.12400       -1.6062468E-18
   65.28550       -1.6079345E-18
   65.44700       -1.6087694E-18
   65.60850       -1.6076980E-18
   65.77000       -1.6050051E-18
   65.93150       -1.6023013E-18
   66.09300       -1.6013987E-18
   66.25450       -1.6028881E-18
   66.41600       -1.6055751E-18
   66.57750       -1.6073246E-18
   66.73900       -1.6067328E-18
   66.90050       -1.6042903E-18
   67.06200       -1.6020775E-18
   67.22350       -1.6021716E-18
   67.38500       -1.6050187E-18
   67.54650       -1.6090570E-18
   67.70800       -1.6119037E-18
   67.86950       -1.6121890E-18
   68.03100       -1.6106188E-18
   68.19250       -1.6094343E-18
   68.35400       -1.6106701E-18
   68.51550       -1.6145349E-18
   68.67700       -1.6191515E-18
   68.83850       -1.6218800E-18
   69.00000       -1.6212519E-18
   69.16150       -1.6180761E-18
   69.32300       -1.6148802E-18
   69.48450       -1.6140642E-18
   69.64600       -1.6161114E-18
   69.80750       -1.6192086E-18
   69.96900       -1.6206156E-18
   70.13050       -1.6188108E-18
   70.29200       -1.6148031E-18
   70.45350       -1.6115244E-18
   70.61500       -1.6116809E-18
   70.77650       -1.6156348E-18
   70.93800       -1.6209736E-18
   71.09950       -1.6241824E-18
   71.26100       -1.6232501E-18
   71.42250       -1.6192341E-18
   71.58400       -1.6155334E-18
   71.74550       -1.6153359E-18
   71.90700       -1.6191526E-18
   72.06850       -1.6243619E-18
   72.23000       -1.6271675E-18
   72.39150       -1.6255173E-18
   72.55300       -1.6207385E-18
   72.71450       -1.6166038E-18
   72.87600       -1.6165000E-18
   73.03750       -1.6208307E-18
   73.19900       -1.6266309E-18
   73.36050       -1.6297218E-18
   73.52200       -1.6278013E-18
   73.68350       -1.6221444E-18
   73.84500       -1.6166435E-18
   74.00650       -1.6149030E-18
   74.16800       -1.6175784E-18
   74.32950       -1.6219467E-18
   74.49100       -1.6240041E-18
   74.65250       -1.6215332E-18
   74.81400       -1.6158314E-18
   74.97550       -1.6108124E-18
   75.13700       -1.6101261E-18
   75.29850       -1.6144272E-18
   75.46000       -1.6208435E-18
   75.62150       -1.6250777E-18
   75.78300       -1.6245991E-18
   75.94450       -1.6205469E-18
   76.10600       -1.6168927E-18
   76.26750       -1.6174509E-18
   76.42900       -1.6229576E-18
   76.59050       -1.6304404E-18
   76.75200       -1.6354100E-18
   76.91350       -1.6352667E-18
   77.07500       -1.6313265E-18
   77.23650       -1.6278637E-18
   77.39800       -1.6288404E-18
   77.55950       -1.6348107E-18
   77.72100       -1.6423820E-18
   77.88250       -1.6467000E-18
   78.04400       -1.6450970E-18
   78.20550       -1.6391359E-18
   78.36700       -1.6334795E-18
   78.52850       -1.6324154E-18
   78.69000       -1.6366655E-18
   78.85150       -1.6428986E-18
   79.01300       -1.6462977E-18
   79.17450       -1.6442353E-18
   79.33600       -1.6382860E-18
   79.49750       -1.6330617E-18
   79.65900       -1.6327656E-18
   79.82050       -1.6380155E-18
   79.98200       -1.6453025E-18
   80.14350       -1.6494976E-18
   80.30500       -1.6475792E-18
   80.46650       -1.6408365E-18
   80.62800       -1.6339124E-18
   80.78950       -1.6313783E-18
   80.95100       -1.6343727E-18
   81.11250       -1.6397975E-18
   81.27400       -1.6426878E-18
   81.43550       -1.6400013E-18
   81.59700       -1.6329869E-18
   81.75850       -1.6263335E-18
   81.92000       -1.6246773E-18
   82.08150       -1.6290892E-18
   82.24300       -1.6362120E-18
   82.40450       -1.6407437E-18
   82.56600       -1.6394014E-18
   82.72750       -1.6333650E-18
   82.88900       -1.6273589E-18
   83.05050       -1.6260744E-18
   83.21200       -1.6306450E-18
   83.37350       -1.6378411E-18
   83.53500       -1.6425661E-18
   83.69650       -1.6417438E-18
   83.85800       -1.6366269E-18
   84.01950       -1.6318043E-18
   84.18100       -1.6316857E-18
   84.34250       -1.6371510E-18
   84.50400       -1.6448664E-18
   84.66550       -1.6497471E-18
   84.82700       -1.6486946E-18
   84.98850       -1.6428344E-18
   85.15000       -1.6366271E-18
   85.31150       -1.6345499E-18
   85.47300       -1.6378253E-18
   85.63450       -1.6436106E-18
   85.79600       -1.6472088E-18
   85.95750       -1.6456327E-18
   86.11900       -1.6398629E-18
   86.28050       -1.6341378E-18
   86.44200       -1.6328150E-18
   86.60350       -1.6371244E-18
   86.76500       -1.6442313E-18
   86.92650       -1.6493210E-18
   87.08800       -1.6491706E-18
   87.24950       -1.6445440E-18
   87.41100       -1.6396090E-18
   87.57250       -1.6388094E-18
   87.73400       -1.6435648E-18
   87.89550       -1.6512595E-18
   88.05700       -1.6572669E-18
   88.21850       -1.6584437E-18
   88.38000       -1.6554479E-18
   88.54150       -1.6521342E-18
   88.70300       -1.6525337E-18
   88.86450       -1.6577338E-18
   89.02600       -1.6650187E-18
   89.18750       -1.6698737E-18
   89.34900       -1.6693023E-18
   89.51050       -1.6639637E-18
   89.67200       -1.6575975E-18
   89.83350       -1.6542504E-18
   89.99500       -1.6553872E-18
   90.15650       -1.6589854E-18
   90.31800       -1.6611914E-18
   90.47950       -1.6592669E-18
   90.64100       -1.6536318E-18
   90.80250       -1.6475484E-18
   90.96400       -1.6447252E-18
   91.12550       -1.6466150E-18
   91.28700       -1.6513680E-18
   91.44850       -1.6551775E-18
   91.61000       -1.6550348E-18
   91.77150       -1.6508861E-18
   91.93300       -1.6456360E-18
   92.09450       -1.6429986E-18
   92.25600       -1.6447904E-18
   92.41750       -1.6496404E-18
   92.57900       -1.6540694E-18
   92.74050       -1.6550946E-18
   92.90200       -1.6524175E-18
   93.06350       -1.6485928E-18
   93.22500       -1.6470802E-18
   93.38650       -1.6496668E-18
   93.54800       -1.6551682E-18
   93.70950       -1.6603315E-18
   93.87100       -1.6622211E-18
   94.03250       -1.6602992E-18
   94.19400       -1.6567154E-18
   94.35550       -1.6546580E-18
   94.51700       -1.6560471E-18
   94.67850       -1.6602261E-18
   94.84000       -1.6645409E-18
   95.00150       -1.6663021E-18
   95.16300       -1.6646973E-18
   95.32450       -1.6613126E-18
   95.48600       -1.6589393E-18
   95.64750       -1.6595677E-18
   95.80900       -1.6629800E-18
   95.97050       -1.6669258E-18
   96.13200       -1.6687277E-18
   96.29350       -1.6671829E-18
   96.45500       -1.6634167E-18
   96.61650       -1.6600924E-18
   96.77800       -1.6595360E-18
   96.93950       -1.6620930E-18
   97.10100       -1.6658947E-18
   97.26250       -1.6682087E-18
   97.42400       -1.6674155E-18
   97.58550       -1.6641786E-18
   97.74700       -1.6609673E-18
   97.90850       -1.6602565E-18
   98.07000       -1.6627110E-18
   98.23150       -1.6666730E-18
   98.39300       -1.6693469E-18
   98.55450       -1.6688259E-18
   98.71600       -1.6654995E-18
   98.87750       -1.6618123E-18
   99.03900       -1.6605353E-18
   99.20050       -1.6627880E-18
   99.36200       -1.6672452E-18
   99.52350       -1.6710875E-18
   99.68500       -1.6720207E-18
   99.84650       -1.6699057E-18
   100.0080       -1.6668316E-18
   100.1695       -1.6655784E-18
   100.3310       -1.6675685E-18
   100.4925       -1.6717758E-18
   100.6540       -1.6753859E-18
   100.8155       -1.6757688E-18
   100.9770       -1.6723622E-18
   101.1385       -1.6671198E-18
   101.3000       -1.6631722E-18
   101.4615       -1.6626299E-18
   101.6230       -1.6650752E-18
   101.7845       -1.6678592E-18
   101.9460       -1.6680442E-18
   102.1075       -1.6646247E-18
   102.2690       -1.6593938E-18
   102.4305       -1.6557581E-18
   102.5920       -1.6562899E-18
   102.7535       -1.6608021E-18
   102.9150       -1.6663977E-18
   103.0765       -1.6695341E-18
   103.2380       -1.6686139E-18
   103.3995       -1.6651844E-18
   103.5610       -1.6628087E-18
   103.7225       -1.6644020E-18
   103.8840       -1.6700090E-18
   104.0455       -1.6766901E-18
   104.2070       -1.6806309E-18
   104.3685       -1.6799222E-18
   104.5300       -1.6759535E-18
   104.6915       -1.6723930E-18
   104.8530       -1.6724960E-18
   105.0145       -1.6767178E-18
   105.1760       -1.6823711E-18
   105.3375       -1.6855857E-18
   105.4990       -1.6841618E-18
   105.6605       -1.6792289E-18
   105.8220       -1.6744915E-18
   105.9835       -1.6735735E-18
   106.1450       -1.6773699E-18
   106.3065       -1.6833482E-18
   106.4680       -1.6873468E-18
   106.6295       -1.6866144E-18
   106.7910       -1.6818583E-18
   106.9525       -1.6767580E-18
   107.1140       -1.6752414E-18
   107.2755       -1.6785113E-18
   107.4370       -1.6840771E-18
   107.5985       -1.6875676E-18
   107.7600       -1.6860229E-18
   107.9215       -1.6801851E-18
   108.0830       -1.6740366E-18
   108.2445       -1.6718793E-18
   108.4060       -1.6751316E-18
   108.5675       -1.6812648E-18
   108.7290       -1.6856914E-18
   108.8905       -1.6852091E-18
   109.0520       -1.6803961E-18
   109.2135       -1.6751684E-18
   109.3750       -1.6738164E-18
   109.5365       -1.6777425E-18
   109.6980       -1.6843273E-18
   109.8595       -1.6887837E-18
   110.0210       -1.6876497E-18
   110.1825       -1.6813552E-18
   110.3440       -1.6739603E-18
   110.5055       -1.6702383E-18
   110.6670       -1.6722160E-18
   110.8285       -1.6777181E-18
   110.9900       -1.6820096E-18
   111.1515       -1.6813538E-18
   111.3130       -1.6758788E-18
   111.4745       -1.6696016E-18
   111.6360       -1.6675167E-18
   111.7975       -1.6718727E-18
   111.9590       -1.6804011E-18
   112.1205       -1.6878721E-18
   112.2820       -1.6898818E-18
   112.4435       -1.6860557E-18
   112.6050       -1.6802797E-18
   112.7665       -1.6777497E-18
   112.9280       -1.6810483E-18
   113.0895       -1.6881844E-18
   113.2510       -1.6940780E-18
   113.4125       -1.6943805E-18
   113.5740       -1.6887460E-18
   113.7355       -1.6811144E-18
   113.8970       -1.6767990E-18
   114.0585       -1.6785867E-18
   114.2200       -1.6847401E-18
   114.3815       -1.6903681E-18
   114.5430       -1.6911054E-18
   114.7045       -1.6863605E-18
   114.8660       -1.6797393E-18
   115.0275       -1.6763522E-18
   115.1890       -1.6790182E-18
   115.3505       -1.6861682E-18
   115.5120       -1.6929902E-18
   115.6735       -1.6949773E-18
   115.8350       -1.6912668E-18
   115.9965       -1.6853047E-18
   116.1580       -1.6822974E-18
   116.3195       -1.6853043E-18
   116.4810       -1.6928583E-18
   116.6425       -1.6999283E-18
   116.8040       -1.7015892E-18
   116.9655       -1.6967049E-18
   117.1270       -1.6888594E-18
   117.2885       -1.6837712E-18
   117.4500       -1.6850596E-18
   117.6115       -1.6915319E-18
   117.7730       -1.6980505E-18
   117.9345       -1.6993953E-18
   118.0960       -1.6942453E-18
   118.2575       -1.6862681E-18
   118.4190       -1.6814600E-18
   118.5805       -1.6836933E-18
   118.7420       -1.6917888E-18