  -27.90000        5.7889193E-18
  -27.73850        5.7901448E-18
  -27.57700        5.7919865E-18
  -27.41550        5.7937786E-18
  -27.25400        5.7953155E-18
  -27.09250        5.7968735E-18
  -26.93100        5.7987685E-18
  -26.76950        5.8009403E-18
  -26.60800        5.8029867E-18
  -26.44650        5.8045853E-18
  -26.28500        5.8058376E-18
  -26.12350        5.8071661E-18
  -25.96200        5.8088730E-18
  -25.80050        5.8108230E-18
  -25.63900        5.8125949E-18
  -25.47750        5.8139374E-18
  -25.31600        5.8150491E-18
  -25.15450        5.8163651E-18
  -24.99300        5.8180774E-18
  -24.83150        5.8199125E-18
  -24.67000        5.8214072E-18
  -24.50850        5.8223945E-18
  -24.34700        5.8231981E-18
  -24.18550        5.8243222E-18
  -24.02400        5.8259538E-18
  -23.86250        5.8277864E-18
  -23.70100        5.8293324E-18
  -23.53950        5.8304107E-18
  -23.37800        5.8312995E-18
  -23.21650        5.8324091E-18
  -23.05500        5.8338302E-18
  -22.89350        5.8352489E-18
  -22.73200        5.8363209E-18
  -22.57050        5.8370955E-18
  -22.40900        5.8380108E-18
  -22.24750        5.8394365E-18
  -22.08600        5.8412434E-18
  -21.92450        5.8428659E-18
  -21.76300        5.8438288E-18
  -21.60150        5.8442097E-18
  -21.44000        5.8445952E-18
  -21.27850        5.8455481E-18
  -21.11700        5.8471251E-18
  -20.95550        5.8488886E-18
  -20.79400        5.8503867E-18
  -20.63250        5.8515877E-18
  -20.47100        5.8528347E-18
  -20.30950        5.8543894E-18
  -20.14800        5.8560864E-18
  -19.98650        5.8574620E-18
  -19.82500        5.8582263E-18
  -19.66350        5.8585605E-18
  -19.50200        5.8589273E-18
  -19.34050        5.8596060E-18
  -19.17900        5.8604564E-18
  -19.01750        5.8611590E-18
  -18.85600        5.8616578E-18
  -18.69450        5.8623142E-18
  -18.53300        5.8635728E-18
  -18.37150        5.8654678E-18
  -18.21000        5.8674957E-18
  -18.04850        5.8690272E-18
  -17.88700        5.8698651E-18
  -17.72550        5.8703945E-18
  -17.56400        5.8711621E-18
  -17.40250        5.8723268E-18
  -17.24100        5.8735502E-18
  -17.07950        5.8744096E-18
  -16.91800        5.8748869E-18
  -16.75650        5.8754085E-18
  -16.59500        5.8764011E-18
  -16.43350        5.8778346E-18
  -16.27200        5.8792354E-18
  -16.11050        5.8801722E-18
  -15.94900        5.8807119E-18
  -15.78750        5.8813786E-18
  -15.62600        5.8826360E-18
  -15.46450        5.8844235E-18
  -15.30300        5.8862160E-18
  -15.14150        5.8875370E-18
  -14.98000        5.8883894E-18
  -14.81850        5.8891686E-18
  -14.65700        5.8901885E-18
  -14.49550        5.8913462E-18
  -14.33400        5.8922660E-18
  -14.17250        5.8927400E-18
  -14.01100        5.8929737E-18
  -13.84950        5.8933699E-18
  -13.68800        5.8940928E-18
  -13.52650        5.8948882E-18
  -13.36500        5.8953737E-18
  -13.20350        5.8954808E-18
  -13.04200        5.8955611E-18
  -12.88050        5.8960086E-18
  -12.71900        5.8967882E-18
  -12.55750        5.8974044E-18
  -12.39600        5.8973920E-18
  -12.23450        5.8968424E-18
  -12.07300        5.8964060E-18
  -11.91150        5.8967452E-18
  -11.75000        5.8979496E-18
  -11.58850        5.8995030E-18
  -11.42700        5.9007992E-18
  -11.26550        5.9017041E-18
  -11.10400        5.9026074E-18
  -10.94250        5.9039541E-18
  -10.78100        5.9057499E-18
  -10.61950        5.9075614E-18
  -10.45800        5.9089908E-18
  -10.29650        5.9101178E-18
  -10.13500        5.9114322E-18
  -9.973500        5.9133347E-18
  -9.812000        5.9157306E-18
  -9.650500        5.9181303E-18
  -9.489000        5.9201279E-18
  -9.327500        5.9217376E-18
  -9.166000        5.9232629E-18
  -9.004500        5.9248718E-18
  -8.843000        5.9263533E-18
  -8.681500        5.9273132E-18
  -8.520000        5.9275821E-18
  -8.358500        5.9273877E-18
  -8.197000        5.9270957E-18
  -8.035500        5.9268033E-18
  -7.874000        5.9262557E-18
  -7.712500        5.9251998E-18
  -7.551000        5.9237878E-18
  -7.389500        5.9225578E-18
  -7.228000        5.9219622E-18
  -7.066500        5.9219233E-18
  -6.905000        5.9219055E-18
  -6.743500        5.9214849E-18
  -6.582000        5.9208401E-18
  -6.420500        5.9206631E-18
  -6.259000        5.9215379E-18
  -6.097500        5.9233610E-18
  -5.936000        5.9253826E-18
  -5.774500        5.9268227E-18
  -5.613000        5.9275130E-18
  -5.451500        5.9279551E-18
  -5.290000        5.9287815E-18
  -5.128500        5.9301757E-18
  -4.967000        5.9317936E-18
  -4.805500        5.9331866E-18
  -4.644000        5.9342438E-18
  -4.482500        5.9352029E-18
  -4.321000        5.9362993E-18
  -4.159500        5.9374714E-18
  -3.998000        5.9384504E-18
  -3.836500        5.9390915E-18
  -3.675000        5.9395671E-18
  -3.513500        5.9401833E-18
  -3.352000        5.9410287E-18
  -3.190500        5.9418633E-18
  -3.029000        5.9423965E-18
  -2.867500        5.9426620E-18
  -2.706000        5.9430677E-18
  -2.544500        5.9440078E-18
  -2.383000        5.9454314E-18
  -2.221500        5.9468306E-18
  -2.060000        5.9476995E-18
  -1.898500        5.9479977E-18
  -1.737000        5.9481483E-18
  -1.575500        5.9485809E-18
  -1.414000        5.9492802E-18
  -1.252500        5.9498204E-18
  -1.091000        5.9498502E-18
 -0.9295000        5.9495392E-18
 -0.7680000        5.9495019E-18
 -0.6065000        5.9502522E-18
 -0.4450000        5.9517010E-18
 -0.2835000        5.9532065E-18
 -0.1220000        5.9541461E-18
  3.9500002E-02    5.9544658E-18
  0.2010000        5.9546850E-18
  0.3625000        5.9553807E-18
  0.5240000        5.9566715E-18
  0.6855000        5.9581654E-18
  0.8470000        5.9593636E-18
   1.008500        5.9600857E-18
   1.170000        5.9605382E-18
   1.331500        5.9610403E-18
   1.493000        5.9617446E-18
   1.654500        5.9626243E-18
   1.816000        5.9636620E-18
   1.977500        5.9649537E-18
   2.139000        5.9665634E-18
   2.300500        5.9683083E-18
   2.462000        5.9697931E-18
   2.623500        5.9707505E-18
   2.785000        5.9713469E-18
   2.946500        5.9720864E-18
   3.108000        5.9733305E-18
   3.269500        5.9748802E-18
   3.431000        5.9760714E-18
   3.592500        5.9763373E-18
   3.754000        5.9757426E-18
   3.915500        5.9749675E-18
   4.077000        5.9747417E-18
   4.238500        5.9752281E-18
   4.400000        5.9759254E-18
   4.561500        5.9761773E-18
   4.723000        5.9757773E-18
   4.884500        5.9751007E-18
   5.046000        5.9746784E-18
   5.207500        5.9746722E-18
   5.369000        5.9747785E-18
   5.530500        5.9746201E-18
   5.692000        5.9741776E-18
   5.853500        5.9738277E-18
   6.015000        5.9739794E-18
   6.176500        5.9746979E-18
   6.338000        5.9756834E-18
   6.499500        5.9765929E-18
   6.661000        5.9773419E-18
   6.822500        5.9780897E-18
   6.984000        5.9789628E-18
   7.145500        5.9798677E-18
   7.307000        5.9806027E-18
   7.468500        5.9811238E-18
   7.630000        5.9816073E-18
   7.791500        5.9822206E-18
   7.953000        5.9828721E-18
   8.114500        5.9832774E-18
   8.276000        5.9833295E-18
   8.437500        5.9833667E-18
   8.599000        5.9839921E-18
   8.760500        5.9855290E-18
   8.922000        5.9876391E-18
   9.083500        5.9895106E-18
   9.245000        5.9905334E-18
   9.406500        5.9908432E-18
   9.568000        5.9912092E-18
   9.729500        5.9923247E-18
   9.891000        5.9941523E-18
   10.05250        5.9959399E-18
   10.21400        5.9968837E-18
   10.37550        5.9968212E-18
   10.53700        5.9963224E-18
   10.69850        5.9961591E-18
   10.86000        5.9966802E-18
   11.02150        5.9976488E-18
   11.18300        5.9985881E-18
   11.34450        5.9992250E-18
   11.50600        5.9996349E-18
   11.66750        6.0000216E-18
   11.82900        6.0004612E-18
   11.99050        6.0008860E-18
   12.15200        6.0012665E-18
   12.31350        6.0017065E-18
   12.47500        6.0023116E-18
   12.63650        6.0029920E-18
   12.79800        6.0035052E-18
   12.95950        6.0037385E-18
   13.12100        6.0039283E-18
   13.28250        6.0045094E-18
   13.44400        6.0056915E-18
   13.60550        6.0071891E-18
   13.76700        6.0084224E-18
   13.92850        6.0090465E-18
   14.09000        6.0093017E-18
   14.25150        6.0098067E-18
   14.41300        6.0109461E-18
   14.57450        6.0124384E-18
   14.73600        6.0135290E-18
   14.89750        6.0136800E-18
   15.05900        6.0130997E-18
   15.22050        6.0125980E-18
   15.38200        6.0128809E-18
   15.54350        6.0139385E-18
   15.70500        6.0150841E-18
   15.86650        6.0155796E-18
   16.02800        6.0152533E-18
   16.18950        6.0145800E-18
   16.35100        6.0142094E-18
   16.51250        6.0144071E-18
   16.67400        6.0149046E-18
   16.83550        6.0152082E-18
   16.99700        6.0150341E-18
   17.15850        6.0144662E-18
   17.32000        6.0137970E-18
   17.48150        6.0132945E-18
   17.64300        6.0131283E-18
   17.80450        6.0134207E-18
   17.96600        6.0142346E-18
   18.12750        6.0154564E-18
   18.28900        6.0167459E-18
   18.45050        6.0177274E-18
   18.61200        6.0182994E-18
   18.77350        6.0187589E-18
   18.93500        6.0195509E-18
   19.09650        6.0208243E-18
   19.25800        6.0222252E-18
   19.41950        6.0231748E-18
   19.58100        6.0234362E-18
   19.74250        6.0234171E-18
   19.90400        6.0238804E-18
   20.06550        6.0252704E-18
   20.22700        6.0272970E-18
   20.38850        6.0291875E-18
   20.55000        6.0303870E-18
   20.71150        6.0310404E-18
   20.87300        6.0318105E-18
   21.03450        6.0331985E-18
   21.19600        6.0350308E-18
   21.35750        6.0365743E-18
   21.51900        6.0371632E-18
   21.68050        6.0367567E-18
   21.84200        6.0359369E-18
   22.00350        6.0353951E-18
   22.16500        6.0353914E-18
   22.32650        6.0356660E-18
   22.48800        6.0357876E-18
   22.64950        6.0355544E-18
   22.81100        6.0350940E-18
   22.97250        6.0346701E-18
   23.13400        6.0344695E-18
   23.29550        6.0345593E-18
   23.45700        6.0349348E-18
   23.61850        6.0355242E-18
   23.78000        6.0361255E-18
   23.94150        6.0364320E-18
   24.10300        6.0362331E-18
   24.26450        6.0356598E-18
   24.42600        6.0352094E-18
   24.58750        6.0354187E-18
   24.74900        6.0364076E-18
   24.91050        6.0377228E-18
   25.07200        6.0386848E-18
   25.23350        6.0389632E-18
   25.39500        6.0388474E-18
   25.55650        6.0389359E-18
   25.71800        6.0395385E-18
   25.87950        6.0403657E-18
   26.04100        6.0408074E-18
   26.20250        6.0405303E-18
   26.36400        6.0398247E-18
   26.52550        6.0393743E-18
   26.68700        6.0396712E-18
   26.84850        6.0406175E-18
   27.01000        6.0416838E-18
   27.17150        6.0424320E-18
   27.33300        6.0429001E-18
   27.49450        6.0434750E-18
   27.65600        6.0444408E-18
   27.81750        6.0456580E-18
   27.97900        6.0466874E-18
   28.14050        6.0471746E-18
   28.30200        6.0471233E-18
   28.46350        6.0468330E-18
   28.62500        6.0466291E-18
   28.78650        6.0466717E-18
   28.94800        6.0469802E-18
   29.10950        6.0475505E-18
   29.27100        6.0483777E-18
   29.43250        6.0493666E-18
   29.59400        6.0502980E-18
   29.75550        6.0509900E-18
   29.91700        6.0515268E-18
   30.07850        6.0522766E-18
   30.24000        6.0535815E-18
   30.40150        6.0553645E-18
   30.56300        6.0570685E-18
   30.72450        6.0580694E-18
   30.88600        6.0582075E-18
   31.04750        6.0579668E-18
   31.20900        6.0580913E-18
   31.37050        6.0589818E-18
   31.53200        6.0603991E-18
   31.69350        6.0617446E-18
   31.85500        6.0626371E-18
   32.01650        6.0632380E-18
   32.17800        6.0640338E-18
   32.33950        6.0653159E-18
   32.50100        6.0668809E-18
   32.66250        6.0682296E-18
   32.82400        6.0690270E-18
   32.98550        6.0693496E-18
   33.14700        6.0695118E-18
   33.30850        6.0696876E-18
   33.47000        6.0697430E-18
   33.63150        6.0694332E-18
   33.79300        6.0687210E-18
   33.95450        6.0678731E-18
   34.11600        6.0672221E-18
   34.27750        6.0668503E-18
   34.43900        6.0665070E-18
   34.60050        6.0658556E-18
   34.76200        6.0647745E-18
   34.92350        6.0634159E-18
   35.08500        6.0620039E-18
   35.24650        6.0606332E-18
   35.40800        6.0593040E-18
   35.56950        6.0581062E-18
   35.73100        6.0572968E-18
   35.89250        6.0571169E-18
   36.05400        6.0575234E-18
   36.21550        6.0581579E-18
   36.37700        6.0586526E-18
   36.53850        6.0590066E-18
   36.70000        6.0596419E-18
   36.86150        6.0610266E-18
   37.02300        6.0631929E-18
   37.18450        6.0656195E-18
   37.34600        6.0676295E-18
   37.50750        6.0689481E-18
   37.66900        6.0698939E-18
   37.83050        6.0710226E-18
   37.99200        6.0725876E-18
   38.15350        6.0743326E-18
   38.31500        6.0757938E-18
   38.47650        6.0767678E-18
   38.63800        6.0774676E-18
   38.79950        6.0782435E-18
   38.96100        6.0791877E-18
   39.12250        6.0800592E-18
   39.28400        6.0805848E-18
   39.44550        6.0807974E-18
   39.60700        6.0810038E-18
   39.76850        6.0814116E-18
   39.93000        6.0818169E-18
   40.09150        6.0817313E-18
   40.25300        6.0808574E-18
   40.41450        6.0794400E-18
   40.57600        6.0781215E-18
   40.73750        6.0774362E-18
   40.89900        6.0774403E-18
   41.06050        6.0778154E-18
   41.22200        6.0782799E-18
   41.38350        6.0788478E-18
   41.54500        6.0796911E-18
   41.70650        6.0808065E-18
   41.86800        6.0819141E-18
   42.02950        6.0827165E-18
   42.19100        6.0832281E-18
   42.35250        6.0837653E-18
   42.51400        6.0845615E-18
   42.67550        6.0854234E-18
   42.83700        6.0858482E-18
   42.99850        6.0855305E-18
   43.16000        6.0847323E-18
   43.32150        6.0840983E-18
   43.48300        6.0840503E-18
   43.64450        6.0843824E-18
   43.80600        6.0844647E-18
   43.96750        6.0838629E-18
   44.12900        6.0827504E-18
   44.29050        6.0817168E-18
   44.45200        6.0811878E-18
   44.61350        6.0810712E-18
   44.77500        6.0809637E-18
   44.93650        6.0806725E-18
   45.09800        6.0804686E-18
   45.25950        6.0808057E-18
   45.42100        6.0818186E-18
   45.58250        6.0831541E-18
   45.74400        6.0843233E-18
   45.90550        6.0851926E-18
   46.06700        6.0860963E-18
   46.22850        6.0874550E-18
   46.39000        6.0893075E-18
   46.55150        6.0912298E-18
   46.71300        6.0926919E-18
   46.87450        6.0934665E-18
   47.03600        6.0936981E-18
   47.19750        6.0936398E-18
   47.35900        6.0933983E-18
   47.52050        6.0929644E-18
   47.68200        6.0924458E-18
   47.84350        6.0921430E-18
   48.00500        6.0923147E-18
   48.16650        6.0928680E-18
   48.32800        6.0933681E-18
   48.48950        6.0934264E-18
   48.65100        6.0931021E-18
   48.81250        6.0928805E-18
   48.97400        6.0932022E-18
   49.13550        6.0939955E-18
   49.29700        6.0946945E-18
   49.45850        6.0947664E-18
   49.62000        6.0942465E-18
   49.78150        6.0937730E-18
   49.94300        6.0940733E-18
   50.10450        6.0953773E-18
   50.26600        6.0972831E-18
   50.42750        6.0991617E-18
   50.58900        6.1006663E-18
   50.75050        6.1018794E-18
   50.91200        6.1030205E-18
   51.07350        6.1040954E-18
   51.23500        6.1048518E-18
   51.39650        6.1050508E-18
   51.55800        6.1047228E-18
   51.71950        6.1041301E-18
   51.88100        6.1034944E-18
   52.04250        6.1028037E-18
   52.20400        6.1018864E-18
   52.36550        6.1006531E-18
   52.52700        6.0992258E-18
   52.68850        6.0978245E-18
   52.85000        6.0965614E-18
   53.01150        6.0954021E-18
   53.17300        6.0943470E-18
   53.33450        6.0935914E-18
   53.49600        6.0934260E-18
   53.65750        6.0939409E-18
   53.81900        6.0948603E-18
   53.98050        6.0957504E-18
   54.14200        6.0964477E-18
   54.30350        6.0972753E-18
   54.46500        6.0987828E-18
   54.62650        6.1012040E-18
   54.78800        6.1041268E-18
   54.94950        6.1067217E-18
   55.11100        6.1083578E-18
   55.27250        6.1090605E-18
   55.43400        6.1093939E-18
   55.59550        6.1098889E-18
   55.75700        6.1105441E-18
   55.91850        6.1108431E-18
   56.08000        6.1102297E-18
   56.24150        6.1085820E-18
   56.40300        6.1062977E-18
   56.56450        6.1039994E-18
   56.72600        6.1021763E-18
   56.88750        6.1010422E-18
   57.04900        6.1006100E-18
   57.21050        6.1007825E-18
   57.37200        6.1013711E-18
   57.53350        6.1021064E-18
   57.69500        6.1027562E-18
   57.85650        6.1033058E-18
   58.01800        6.1039742E-18
   58.17950        6.1049900E-18
   58.34100        6.1062845E-18
   58.50250        6.1074587E-18
   58.66400        6.1081221E-18
   58.82550        6.1083086E-18
   58.98700        6.1085171E-18
   59.14850        6.1092727E-18
   59.31000        6.1105954E-18
   59.47150        6.1119040E-18
   59.63300        6.1125037E-18
   59.79450        6.1122208E-18
   59.95600        6.1115834E-18
   60.11750        6.1113568E-18
   60.27900        6.1118502E-18
   60.44050        6.1126377E-18
   60.60200        6.1129652E-18
   60.76350        6.1124429E-18
   60.92500        6.1114035E-18
   61.08650        6.1106193E-18
   61.24800        6.1106826E-18
   61.40950        6.1115896E-18
   61.57100        6.1128258E-18
   61.73250        6.1137903E-18
   61.89400        6.1141816E-18
   62.05550        6.1141142E-18
   62.21700        6.1139781E-18
   62.37850        6.1142163E-18
   62.54000        6.1150919E-18
   62.70150        6.1165159E-18
   62.86300        6.1180090E-18
   63.02450        6.1189056E-18
   63.18600        6.1187770E-18
   63.34750        6.1178026E-18
   63.50900        6.1167372E-18
   63.67050        6.1163898E-18
   63.83200        6.1169903E-18
   63.99350        6.1179788E-18
   64.15500        6.1184536E-18
   64.31650        6.1179176E-18
   64.47800        6.1166805E-18
   64.63950        6.1155485E-18
   64.80100        6.1150932E-18
   64.96250        6.1151597E-18
   65.12400        6.1150344E-18
   65.28550        6.1141196E-18
   65.44700        6.1124962E-18
   65.60850        6.1109014E-18
   65.77000        6.1101661E-18
   65.93150        6.1106177E-18
   66.09300        6.1119213E-18
   66.25450        6.1134371E-18
   66.41600        6.1147333E-18
   66.57750        6.1158533E-18
   66.73900        6.1171797E-18
   66.90050        6.1190529E-18
   67.06200        6.1214438E-18
   67.22350        6.1238832E-18
   67.38500        6.1256873E-18
   67.54650        6.1263565E-18
   67.70800        6.1258990E-18
   67.86950        6.1248758E-18
   68.03100        6.1240676E-18
   68.19250        6.1239448E-18
   68.35400        6.1243001E-18
   68.51550        6.1243687E-18
   68.67700        6.1234138E-18
   68.83850        6.1213781E-18
   69.00000        6.1190727E-18
   69.16150        6.1176802E-18
   69.32300        6.1179101E-18
   69.48450        6.1194590E-18
   69.64600        6.1212155E-18
   69.80750        6.1220712E-18
   69.96900        6.1217065E-18
   70.13050        6.1207515E-18
   70.29200        6.1202279E-18
   70.45350        6.1207354E-18
   70.61500        6.1220191E-18
   70.77650        6.1232074E-18
   70.93800        6.1235048E-18
   71.09950        6.1227760E-18
   71.26100        6.1216068E-18
   71.42250        6.1208334E-18
   71.58400        6.1209256E-18
   71.74550        6.1216821E-18
   71.90700        6.1224129E-18
   72.06850        6.1224613E-18
   72.23000        6.1216808E-18
   72.39150        6.1205405E-18
   72.55300        6.1197886E-18
   72.71450        6.1199193E-18
   72.87600        6.1208342E-18
   73.03750        6.1219488E-18
   73.19900        6.1226772E-18
   73.36050        6.1229096E-18
   73.52200        6.1231085E-18
   73.68350        6.1239167E-18
   73.84500        6.1255628E-18
   74.00650        6.1275550E-18
   74.16800        6.1289426E-18
   74.32950        6.1289997E-18
   74.49100        6.1278061E-18
   74.65250        6.1262444E-18
   74.81400        6.1253729E-18
   74.97550        6.1256467E-18
   75.13700        6.1265877E-18
   75.29850        6.1271778E-18
   75.46000        6.1266704E-18
   75.62150        6.1251955E-18
   75.78300        6.1236933E-18
   75.94450        6.1232297E-18
   76.10600        6.1242062E-18
   76.26750        6.1260632E-18
   76.42900        6.1276630E-18
   76.59050        6.1280621E-18
   76.75200        6.1271059E-18
   76.91350        6.1254565E-18
   77.07500        6.1240854E-18
   77.23650        6.1235957E-18
   77.39800        6.1238513E-18
   77.55950        6.1241429E-18
   77.72100        6.1237678E-18
   77.88250        6.1226106E-18
   78.04400        6.1212970E-18
   78.20550        6.1207937E-18
   78.36700        6.1217259E-18
   78.52850        6.1239105E-18
   78.69000        6.1264636E-18
   78.85150        6.1284236E-18
   79.01300        6.1294121E-18
   79.17450        6.1298252E-18
   79.33600        6.1303935E-18
   79.49750        6.1315007E-18
   79.65900        6.1328176E-18
   79.82050        6.1335703E-18
   79.98200        6.1331977E-18
   80.14350        6.1318390E-18
   80.30500        6.1302500E-18
   80.46650        6.1292168E-18
   80.62800        6.1289629E-18
   80.78950        6.1290051E-18
   80.95100        6.1285580E-18
   81.11250        6.1271654E-18
   81.27400        6.1250892E-18
   81.43550        6.1231747E-18
   81.59700        6.1223140E-18
   81.75850        6.1228562E-18
   81.92000        6.1243783E-18
   82.08150        6.1259726E-18
   82.24300        6.1268768E-18
   82.40450        6.1270347E-18
   82.56600        6.1271485E-18
   82.72750        6.1281576E-18
   82.88900        6.1304618E-18
   83.05050        6.1334987E-18
   83.21200        6.1360254E-18
   83.37350        6.1369634E-18
   83.53500        6.1361540E-18
   83.69650        6.1344463E-18
   83.85800        6.1330273E-18
   84.01950        6.1325363E-18
   84.18100        6.1326488E-18
   84.34250        6.1324495E-18
   84.50400        6.1312447E-18
   84.66550        6.1291569E-18
   84.82700        6.1270492E-18
   84.98850        6.1258912E-18
   85.15000        6.1260955E-18
   85.31150        6.1272908E-18
   85.47300        6.1286494E-18
   85.63450        6.1294613E-18
   85.79600        6.1295473E-18
   85.95750        6.1292714E-18
   86.11900        6.1291891E-18
   86.28050        6.1296056E-18
   86.44200        6.1303443E-18
   86.60350        6.1308869E-18
   86.76500        6.1307968E-18
   86.92650        6.1301239E-18
   87.08800        6.1294609E-18
   87.24950        6.1295547E-18
   87.41100        6.1307281E-18
   87.57250        6.1325673E-18
   87.73400        6.1341803E-18
   87.89550        6.1348640E-18
   88.05700        6.1346564E-18
   88.21850        6.1342937E-18
   88.38000        6.1345840E-18
   88.54150        6.1356966E-18
   88.70300        6.1369770E-18
   88.86450        6.1374456E-18
   89.02600        6.1365709E-18
   89.18750        6.1346878E-18
   89.34900        6.1327307E-18
   89.51050        6.1315272E-18
   89.67200        6.1312265E-18
   89.83350        6.1312798E-18
   89.99500        6.1309320E-18
   90.15650        6.1298108E-18
   90.31800        6.1281816E-18
   90.47950        6.1267477E-18
   90.64100        6.1261807E-18
   90.80250        6.1267155E-18
   90.96400        6.1280547E-18
   91.12550        6.1295965E-18
   91.28700        6.1308319E-18
   91.44850        6.1316554E-18
   91.61000        6.1323891E-18
   91.77150        6.1334954E-18
   91.93300        6.1351771E-18
   92.09450        6.1371487E-18
   92.25600        6.1387749E-18
   92.41750        6.1394904E-18
   92.57900        6.1391831E-18
   92.74050        6.1382298E-18
   92.90200        6.1371677E-18
   93.06350        6.1362710E-18
   93.22500        6.1353984E-18
   93.38650        6.1342362E-18
   93.54800        6.1327175E-18
   93.70950        6.1312339E-18
   93.87100        6.1304465E-18
   94.03250        6.1308290E-18
   94.19400        6.1323254E-18
   94.35550        6.1343838E-18
   94.51700        6.1363438E-18
   94.67850        6.1378539E-18
   94.84000        6.1390131E-18
   95.00150        6.1401480E-18
   95.16300        6.1414380E-18
   95.32450        6.1426904E-18
   95.48600        6.1434319E-18
   95.64750        6.1432252E-18
   95.80900        6.1419786E-18
   95.97050        6.1400186E-18
   96.13200        6.1379072E-18
   96.29350        6.1361362E-18
   96.45500        6.1349062E-18
   96.61650        6.1340956E-18
   96.77800        6.1334020E-18
   96.93950        6.1325678E-18
   97.10100        6.1315491E-18
   97.26250        6.1305457E-18
   97.42400        6.1298711E-18
   97.58550        6.1297384E-18
   97.74700        6.1300899E-18
   97.90850        6.1306011E-18
   98.07000        6.1308840E-18
   98.23150        6.1307509E-18
   98.39300        6.1303517E-18
   98.55450        6.1300540E-18
   98.71600        6.1301681E-18
   98.87750        6.1307331E-18
   99.03900        6.1315400E-18
   99.20050        6.1323481E-18
   99.36200        6.1330847E-18
   99.52350        6.1338453E-18
   99.68500        6.1347271E-18
   99.84650        6.1356879E-18
   100.0080        6.1365705E-18
   100.1695        6.1372728E-18
   100.3310        6.1378596E-18
   100.4925        6.1385003E-18
   100.6540        6.1392977E-18
   100.8155        6.1401828E-18
   100.9770        6.1409777E-18
   101.1385        6.1415327E-18
   101.3000        6.1417954E-18
   101.4615        6.1417548E-18
   101.6230        6.1413586E-18
   101.7845        6.1405347E-18
   101.9460        6.1392998E-18
   102.1075        6.1378104E-18
   102.2690        6.1362694E-18
   102.4305        6.1347676E-18
   102.5920        6.1332489E-18
   102.7535        6.1316756E-18
   102.9150        6.1302438E-18
   103.0765        6.1293997E-18
   103.2380        6.1295808E-18
   103.3995        6.1308869E-18
   103.5610        6.1329644E-18
   103.7225        6.1352214E-18
   103.8840        6.1371896E-18
   104.0455        6.1387435E-18
   104.2070        6.1400269E-18
   104.3685        6.1412097E-18
   104.5300        6.1422933E-18
   104.6915        6.1430928E-18
   104.8530        6.1433575E-18
   105.0145        6.1428976E-18
   105.1760        6.1416750E-18
   105.3375        6.1398747E-18
   105.4990        6.1379246E-18
   105.6605        6.1363827E-18
   105.8220        6.1356755E-18
   105.9835        6.1358347E-18
   106.1450        6.1364555E-18
   106.3065        6.1369700E-18
   106.4680        6.1370606E-18
   106.6295        6.1368745E-18
   106.7910        6.1368439E-18
   106.9525        6.1372657E-18
   107.1140        6.1379970E-18
   107.2755        6.1385545E-18
   107.4370        6.1385123E-18
   107.5985        6.1378505E-18
   107.7600        6.1369522E-18
   107.9215        6.1362801E-18
   108.0830        6.1360237E-18
   108.2445        6.1360146E-18
   108.4060        6.1359336E-18
   108.5675        6.1355973E-18
   108.7290        6.1350927E-18
   108.8905        6.1346671E-18
   109.0520        6.1345112E-18
   109.2135        6.1346051E-18
   109.3750        6.1347540E-18
   109.5365        6.1347639E-18
   109.6980        6.1346229E-18
   109.8595        6.1345555E-18
   110.0210        6.1348975E-18
   110.1825        6.1358550E-18
   110.3440        6.1373087E-18
   110.5055        6.1388200E-18
   110.6670        6.1398846E-18
   110.8285        6.1402746E-18
   110.9900        6.1402150E-18
   111.1515        6.1402212E-18
   111.3130        6.1407047E-18
   111.4745        6.1416270E-18
   111.6360        6.1424989E-18
   111.7975        6.1427255E-18
   111.9590        6.1420663E-18
   112.1205        6.1408391E-18
   112.2820        6.1397402E-18
   112.4435        6.1393771E-18
   112.6050        6.1398755E-18
   112.7665        6.1408077E-18
   112.9280        6.1415025E-18
   113.0895        6.1414947E-18
   113.2510        6.1408081E-18
   113.4125        6.1398866E-18
   113.5740        6.1392270E-18
   113.7355        6.1389863E-18
   113.8970        6.1388630E-18
   114.0585        6.1383502E-18
   114.2200        6.1371644E-18
   114.3815        6.1355224E-18
   114.5430        6.1340232E-18
   114.7045        6.1332415E-18
   114.8660        6.1333635E-18
   115.0275        6.1341390E-18
   115.1890        6.1351763E-18
   115.3505        6.1362698E-18
   115.5120        6.1374915E-18
   115.6735        6.1389921E-18
   115.8350        6.1407291E-18
   115.9965        6.1424013E-18
   116.1580        6.1436433E-18
   116.3195        6.1442852E-18
   116.4810        6.1444316E-18
   116.6425        6.1443187E-18
   116.8040        6.1440916E-18
   116.9655        6.1437107E-18
   117.1270        6.1430312E-18
   117.2885        6.1419480E-18
   117.4500        6.1404868E-18
   117.6115        6.1388101E-18
   117.7730        6.1371632E-18
   117.9345        6.1358086E-18
   118.0960        6.1349294E-18
   118.2575        6.1345294E-18
   118.4190        6.1344111E-18
   118.5805        6.1342945E-18
   118.7420        6.1340389E-18