  -27.90000        5.4467829E-18
  -27.73850        5.4474141E-18
  -27.57700        5.4483736E-18
  -27.41550        5.4493215E-18
  -27.25400        5.4501367E-18
  -27.09250        5.4509436E-18
  -26.93100        5.4519131E-18
  -26.76950        5.4530463E-18
  -26.60800        5.4541667E-18
  -26.44650        5.4550957E-18
  -26.28500        5.4558323E-18
  -26.12350        5.4565457E-18
  -25.96200        5.4573990E-18
  -25.80050        5.4583841E-18
  -25.63900        5.4593461E-18
  -25.47750        5.4601555E-18
  -25.31600        5.4608508E-18
  -25.15450        5.4615849E-18
  -24.99300        5.4624518E-18
  -24.83150        5.4633737E-18
  -24.67000        5.4641835E-18
  -24.50850        5.4648092E-18
  -24.34700        5.4653626E-18
  -24.18550        5.4660318E-18
  -24.02400        5.4668888E-18
  -23.86250        5.4678161E-18
  -23.70100        5.4686267E-18
  -23.53950        5.4692566E-18
  -23.37800        5.4698269E-18
  -23.21650        5.4705044E-18
  -23.05500        5.4713134E-18
  -22.89350        5.4720975E-18
  -22.73200        5.4726906E-18
  -22.57050        5.4731216E-18
  -22.40900        5.4736179E-18
  -22.24750        5.4743880E-18
  -22.08600        5.4753934E-18
  -21.92450        5.4763534E-18
  -21.76300        5.4769862E-18
  -21.60150        5.4772744E-18
  -21.44000        5.4774895E-18
  -21.27850        5.4779556E-18
  -21.11700        5.4787725E-18
  -20.95550        5.4797552E-18
  -20.79400        5.4806324E-18
  -20.63250        5.4813036E-18
  -20.47100        5.4819050E-18
  -20.30950        5.4826325E-18
  -20.14800        5.4835176E-18
  -19.98650        5.4843886E-18
  -19.82500        5.4850396E-18
  -19.66350        5.4854234E-18
  -19.50200        5.4856803E-18
  -19.34050        5.4859822E-18
  -19.17900        5.4863834E-18
  -19.01750        5.4868118E-18
  -18.85600        5.4871998E-18
  -18.69450        5.4875890E-18
  -18.53300        5.4880927E-18
  -18.37150        5.4887524E-18
  -18.21000        5.4894601E-18
  -18.04850        5.4900416E-18
  -17.88700        5.4904262E-18
  -17.72550        5.4907186E-18
  -17.56400        5.4910871E-18
  -17.40250        5.4915880E-18
  -17.24100        5.4921182E-18
  -17.07950        5.4925483E-18
  -16.91800        5.4929024E-18
  -16.75650        5.4933706E-18
  -16.59500        5.4941270E-18
  -16.43350        5.4951329E-18
  -16.27200        5.4961284E-18
  -16.11050        5.4968658E-18
  -15.94900        5.4973489E-18
  -15.78750        5.4978605E-18
  -15.62600        5.4987195E-18
  -15.46450        5.4999950E-18
  -15.30300        5.5014393E-18
  -15.14150        5.5027049E-18
  -14.98000        5.5036454E-18
  -14.81850        5.5044064E-18
  -14.65700        5.5052394E-18
  -14.49550        5.5062216E-18
  -14.33400        5.5071568E-18
  -14.17250        5.5077321E-18
  -14.01100        5.5077705E-18
  -13.84950        5.5073516E-18
  -13.68800        5.5066993E-18
  -13.52650        5.5059797E-18
  -13.36500        5.5051947E-18
  -13.20350        5.5042612E-18
  -13.04200        5.5031611E-18
  -12.88050        5.5019997E-18
  -12.71900        5.5009194E-18
  -12.55750        5.4999901E-18
  -12.39600        5.4991960E-18
  -12.23450        5.4985284E-18
  -12.07300        5.4980578E-18
  -11.91150        5.4978965E-18
  -11.75000        5.4980847E-18
  -11.58850        5.4985346E-18
  -11.42700        5.4991162E-18
  -11.26550        5.4997895E-18
  -11.10400        5.5006452E-18
  -10.94250        5.5017954E-18
  -10.78100        5.5032061E-18
  -10.61950        5.5046653E-18
  -10.45800        5.5059445E-18
  -10.29650        5.5070211E-18
  -10.13500        5.5081241E-18
  -9.973500        5.5095337E-18
  -9.812000        5.5112935E-18
  -9.650500        5.5131174E-18
  -9.489000        5.5146059E-18
  -9.327500        5.5155787E-18
  -9.166000        5.5162280E-18
  -9.004500        5.5169415E-18
  -8.843000        5.5179664E-18
  -8.681500        5.5192046E-18
  -8.520000        5.5203362E-18
  -8.358500        5.5211245E-18
  -8.197000        5.5216349E-18
  -8.035500        5.5221573E-18
  -7.874000        5.5229315E-18
  -7.712500        5.5239328E-18
  -7.551000        5.5249229E-18
  -7.389500        5.5256678E-18
  -7.228000        5.5261112E-18
  -7.066500        5.5263424E-18
  -6.905000        5.5264553E-18
  -6.743500        5.5264632E-18
  -6.582000        5.5263527E-18
  -6.420500        5.5261832E-18
  -6.259000        5.5260822E-18
  -6.097500        5.5261385E-18
  -5.936000        5.5262973E-18
  -5.774500        5.5264019E-18
  -5.613000        5.5263490E-18
  -5.451500        5.5262038E-18
  -5.290000        5.5261195E-18
  -5.128500        5.5261468E-18
  -4.967000        5.5261281E-18
  -4.805500        5.5258341E-18
  -4.644000        5.5252116E-18
  -4.482500        5.5244945E-18
  -4.321000        5.5240296E-18
  -4.159500        5.5239738E-18
  -3.998000        5.5241574E-18
  -3.836500        5.5242579E-18
  -3.675000        5.5241301E-18
  -3.513500        5.5239771E-18
  -3.352000        5.5241772E-18
  -3.190500        5.5249213E-18
  -3.029000        5.5260045E-18
  -2.867500        5.5269723E-18
  -2.706000        5.5274959E-18
  -2.544500        5.5276241E-18
  -2.383000        5.5276928E-18
  -2.221500        5.5279943E-18
  -2.060000        5.5285299E-18
  -1.898500        5.5290493E-18
  -1.737000        5.5293049E-18
  -1.575500        5.5292594E-18
  -1.414000        5.5290804E-18
  -1.252500        5.5289724E-18
  -1.091000        5.5290278E-18
 -0.9295000        5.5292321E-18
 -0.7680000        5.5295514E-18
 -0.6065000        5.5299890E-18
 -0.4450000        5.5305391E-18
 -0.2835000        5.5311264E-18
 -0.1220000        5.5316500E-18
  3.9500002E-02    5.5321008E-18
  0.2010000        5.5326219E-18
  0.3625000        5.5333991E-18
  0.5240000        5.5344665E-18
  0.6855000        5.5356221E-18
  0.8470000        5.5365692E-18
   1.008500        5.5371636E-18
   1.170000        5.5375317E-18
   1.331500        5.5379341E-18
   1.493000        5.5384837E-18
   1.654500        5.5390016E-18
   1.816000        5.5391562E-18
   1.977500        5.5387844E-18
   2.139000        5.5380875E-18
   2.300500        5.5375085E-18
   2.462000        5.5373807E-18
   2.623500        5.5376756E-18
   2.785000        5.5380855E-18
   2.946500        5.5383506E-18
   3.108000        5.5385280E-18
   3.269500        5.5389445E-18
   3.431000        5.5398949E-18
   3.592500        5.5413512E-18
   3.754000        5.5429625E-18
   3.915500        5.5443150E-18
   4.077000        5.5452286E-18
   4.238500        5.5458357E-18
   4.400000        5.5464065E-18
   4.561500        5.5471075E-18
   4.723000        5.5479016E-18
   4.884500        5.5486452E-18
   5.046000        5.5492268E-18
   5.207500        5.5496255E-18
   5.369000        5.5498674E-18
   5.530500        5.5499816E-18
   5.692000        5.5500155E-18
   5.853500        5.5500601E-18
   6.015000        5.5502024E-18
   6.176500        5.5504295E-18
   6.338000        5.5505879E-18
   6.499500        5.5504894E-18
   6.661000        5.5501102E-18
   6.822500        5.5496813E-18
   6.984000        5.5495576E-18
   7.145500        5.5499253E-18
   7.307000        5.5506234E-18
   7.468500        5.5512686E-18
   7.630000        5.5515954E-18
   7.791500        5.5516905E-18
   7.953000        5.5519019E-18
   8.114500        5.5524759E-18
   8.276000        5.5532890E-18
   8.437500        5.5539313E-18
   8.599000        5.5540761E-18
   8.760500        5.5537920E-18
   8.922000        5.5535029E-18
   9.083500        5.5536228E-18
   9.245000        5.5542072E-18
   9.406500        5.5549310E-18
   9.568000        5.5554058E-18
   9.729500        5.5555220E-18
   9.891000        5.5555075E-18
   10.05250        5.5556759E-18
   10.21400        5.5561267E-18
   10.37550        5.5566784E-18
   10.53700        5.5570498E-18
   10.69850        5.5570941E-18
   10.86000        5.5568765E-18
   11.02150        5.5565820E-18
   11.18300        5.5563827E-18
   11.34450        5.5563889E-18
   11.50600        5.5566714E-18
   11.66750        5.5572620E-18
   11.82900        5.5581053E-18
   11.99050        5.5590288E-18
   12.15200        5.5598337E-18
   12.31350        5.5604508E-18
   12.47500        5.5610079E-18
   12.63650        5.5616874E-18
   12.79800        5.5624885E-18
   12.95950        5.5631255E-18
   13.12100        5.5632115E-18
   13.28250        5.5625886E-18
   13.44400        5.5615029E-18
   13.60550        5.5604396E-18
   13.76700        5.5597477E-18
   13.92850        5.5593953E-18
   14.09000        5.5590648E-18
   14.25150        5.5585090E-18
   14.41300        5.5578191E-18
   14.57450        5.5573530E-18
   14.73600        5.5573997E-18
   14.89750        5.5579002E-18
   15.05900        5.5584932E-18
   15.22050        5.5588423E-18
   15.38200        5.5589263E-18
   15.54350        5.5590379E-18
   15.70500        5.5595111E-18
   15.86650        5.5604392E-18
   16.02800        5.5616320E-18
   16.18950        5.5628115E-18
   16.35100        5.5638406E-18
   16.51250        5.5647753E-18
   16.67400        5.5657315E-18
   16.83550        5.5667249E-18
   16.99700        5.5676390E-18
   17.15850        5.5683363E-18
   17.32000        5.5687598E-18
   17.48150        5.5689430E-18
   17.64300        5.5689455E-18
   17.80450        5.5688285E-18
   17.96600        5.5686957E-18
   18.12750        5.5687412E-18
   18.28900        5.5691804E-18
   18.45050        5.5700969E-18
   18.61200        5.5713480E-18
   18.77350        5.5726496E-18
   18.93500        5.5737862E-18
   19.09650        5.5747713E-18
   19.25800        5.5757925E-18
   19.41950        5.5769782E-18
   19.58100        5.5782095E-18
   19.74250        5.5791624E-18
   19.90400        5.5795702E-18
   20.06550        5.5794569E-18
   20.22700        5.5791223E-18
   20.38850        5.5788878E-18
   20.55000        5.5788357E-18
   20.71150        5.5787910E-18
   20.87300        5.5785503E-18
   21.03450        5.5781119E-18
   21.19600        5.5776925E-18
   21.35750        5.5775138E-18
   21.51900        5.5775693E-18
   21.68050        5.5776156E-18
   21.84200        5.5773865E-18
   22.00350        5.5768302E-18
   22.16500        5.5761333E-18
   22.32650        5.5755282E-18
   22.48800        5.5750902E-18
   22.64950        5.5747283E-18
   22.81100        5.5743573E-18
   22.97250        5.5740488E-18
   23.13400        5.5739888E-18
   23.29550        5.5742829E-18
   23.45700        5.5748288E-18
   23.61850        5.5753996E-18
   23.78000        5.5758516E-18
   23.94150        5.5762259E-18
   24.10300        5.5766424E-18
   24.26450        5.5770945E-18
   24.42600        5.5773803E-18
   24.58750        5.5772835E-18
   24.74900        5.5768298E-18
   24.91050        5.5763459E-18
   25.07200        5.5762280E-18
   25.23350        5.5766201E-18
   25.39500        5.5773108E-18
   25.55650        5.5779456E-18
   25.71800        5.5783547E-18
   25.87950        5.5786628E-18
   26.04100        5.5791173E-18
   26.20250        5.5798155E-18
   26.36400        5.5806133E-18
   26.52550        5.5812932E-18
   26.68700        5.5817821E-18
   26.84850        5.5822048E-18
   27.01000        5.5827313E-18
   27.17150        5.5834042E-18
   27.33300        5.5841392E-18
   27.49450        5.5848799E-18
   27.65600        5.5856955E-18
   27.81750        5.5866856E-18
   27.97900        5.5877878E-18
   28.14050        5.5887321E-18
   28.30200        5.5892371E-18
   28.46350        5.5892668E-18
   28.62500        5.5890733E-18
   28.78650        5.5889533E-18
   28.94800        5.5889587E-18
   29.10950        5.5888570E-18
   29.27100        5.5884020E-18
   29.43250        5.5876547E-18
   29.59400        5.5870244E-18
   29.75550        5.5869586E-18
   29.91700        5.5875720E-18
   30.07850        5.5885708E-18
   30.24000        5.5895468E-18
   30.40150        5.5903525E-18
   30.56300        5.5911876E-18
   30.72450        5.5923241E-18
   30.88600        5.5937531E-18
   31.04750        5.5950960E-18
   31.20900        5.5958706E-18
   31.37050        5.5958529E-18
   31.53200        5.5952308E-18
   31.69350        5.5944194E-18
   31.85500        5.5937469E-18
   32.01650        5.5932729E-18
   32.17800        5.5928440E-18
   32.33950        5.5922943E-18
   32.50100        5.5915739E-18
   32.66250        5.5907512E-18
   32.82400        5.5899468E-18
   32.98550        5.5892776E-18
   33.14700        5.5888280E-18
   33.30850        5.5885968E-18
   33.47000        5.5884500E-18
   33.63150        5.5881646E-18
   33.79300        5.5875926E-18
   33.95450        5.5868403E-18
   34.11600        5.5862778E-18
   34.27750        5.5863047E-18
   34.43900        5.5870231E-18
   34.60050        5.5880956E-18
   34.76200        5.5889670E-18
   34.92350        5.5892929E-18
   35.08500        5.5892156E-18
   35.24650        5.5892375E-18
   35.40800        5.5897718E-18
   35.56950        5.5907632E-18
   35.73100        5.5917244E-18
   35.89250        5.5921632E-18
   36.05400        5.5920280E-18
   36.21550        5.5917707E-18
   36.37700        5.5919804E-18
   36.53850        5.5929040E-18
   36.70000        5.5942597E-18
   36.86150        5.5955005E-18
   37.02300        5.5962751E-18
   37.18450        5.5966978E-18
   37.34600        5.5972090E-18
   37.50750        5.5981739E-18
   37.66900        5.5995735E-18
   37.83050        5.6010190E-18
   37.99200        5.6020526E-18
   38.15350        5.6024658E-18
   38.31500        5.6024037E-18
   38.47650        5.6022230E-18
   38.63800        5.6022461E-18
   38.79950        5.6025766E-18
   38.96100        5.6030737E-18
   39.12250        5.6034675E-18
   39.28400        5.6035403E-18
   39.44550        5.6032772E-18
   39.60700        5.6029075E-18
   39.76850        5.6027644E-18
   39.93000        5.6030398E-18
   40.09150        5.6035775E-18
   40.25300        5.6039005E-18
   40.41450        5.6035233E-18
   40.57600        5.6023351E-18
   40.73750        5.6007444E-18
   40.89900        5.5994147E-18
   41.06050        5.5987587E-18
   41.22200        5.5986169E-18
   41.38350        5.5984064E-18
   41.54500        5.5976483E-18
   41.70650        5.5964162E-18
   41.86800        5.5953173E-18
   42.02950        5.5949934E-18
   42.19100        5.5955700E-18
   42.35250        5.5965407E-18
   42.51400        5.5971830E-18
   42.67550        5.5971557E-18
   42.83700        5.5967458E-18
   42.99850        5.5965824E-18
   43.16000        5.5970688E-18
   43.32150        5.5980494E-18
   43.48300        5.5989577E-18
   43.64450        5.5992910E-18
   43.80600        5.5990069E-18
   43.96750        5.5985259E-18
   44.12900        5.5984059E-18
   44.29050        5.5989569E-18
   44.45200        5.6000855E-18
   44.61350        5.6014243E-18
   44.77500        5.6025973E-18
   44.93650        5.6034348E-18
   45.09800        5.6040461E-18
   45.25950        5.6047231E-18
   45.42100        5.6057463E-18
   45.58250        5.6071625E-18
   45.74400        5.6086853E-18
   45.90550        5.6098256E-18
   46.06700        5.6102255E-18
   46.22850        5.6099761E-18
   46.39000        5.6096279E-18
   46.55150        5.6098202E-18
   46.71300        5.6107781E-18
   46.87450        5.6120867E-18
   47.03600        5.6129668E-18
   47.19750        5.6128733E-18
   47.35900        5.6119159E-18
   47.52050        5.6107417E-18
   47.68200        5.6099712E-18
   47.84350        5.6096721E-18
   48.00500        5.6093355E-18
   48.16650        5.6083747E-18
   48.32800        5.6066988E-18
   48.48950        5.6048505E-18
   48.65100        5.6036060E-18
   48.81250        5.6033926E-18
   48.97400        5.6040130E-18
   49.13550        5.6048811E-18
   49.29700        5.6055238E-18
   49.45850        5.6059093E-18
   49.62000        5.6063676E-18
   49.78150        5.6072183E-18
   49.94300        5.6084550E-18
   50.10450        5.6097321E-18
   50.26600        5.6106102E-18
   50.42750        5.6108410E-18
   50.58900        5.6104940E-18
   50.75050        5.6098909E-18
   50.91200        5.6094236E-18
   51.07350        5.6093541E-18
   51.23500        5.6096775E-18
   51.39650        5.6101271E-18
   51.55800        5.6103418E-18
   51.71950        5.6101370E-18
   51.88100        5.6096846E-18
   52.04250        5.6094281E-18
   52.20400        5.6097350E-18
   52.36550        5.6105308E-18
   52.52700        5.6112492E-18
   52.68850        5.6112198E-18
   52.85000        5.6102272E-18
   53.01150        5.6087664E-18
   53.17300        5.6077308E-18
   53.33450        5.6077510E-18
   53.49600        5.6087238E-18
   53.65750        5.6099298E-18
   53.81900        5.6106416E-18
   53.98050        5.6106991E-18
   54.14200        5.6105696E-18
   54.30350        5.6108641E-18
   54.46500        5.6117566E-18
   54.62650        5.6128047E-18
   54.78800        5.6133105E-18
   54.94950        5.6128866E-18
   55.11100        5.6117517E-18
   55.27250        5.6105444E-18
   55.43400        5.6098612E-18
   55.59550        5.6099067E-18
   55.75700        5.6104691E-18
   55.91850        5.6111706E-18
   56.08000        5.6117418E-18
   56.24150        5.6121624E-18
   56.40300        5.6126053E-18
   56.56450        5.6132745E-18
   56.72600        5.6142336E-18
   56.88750        5.6153160E-18
   57.04900        5.6161746E-18
   57.21050        5.6164885E-18
   57.37200        5.6162139E-18
   57.53350        5.6157023E-18
   57.69500        5.6155253E-18
   57.85650        5.6160824E-18
   58.01800        5.6172735E-18
   58.17950        5.6185358E-18
   58.34100        5.6192732E-18
   58.50250        5.6193415E-18
   58.66400        5.6191578E-18
   58.82550        5.6193146E-18
   58.98700        5.6200061E-18
   59.14850        5.6207688E-18
   59.31000        5.6207986E-18
   59.47150        5.6195859E-18
   59.63300        5.6173587E-18
   59.79450        5.6149446E-18
   59.95600        5.6131711E-18
   60.11750        5.6123121E-18
   60.27900        5.6120077E-18
   60.44050        5.6116872E-18
   60.60200        5.6110970E-18
   60.76350        5.6105018E-18
   60.92500        5.6104207E-18
   61.08650        5.6111702E-18
   61.24800        5.6125830E-18
   61.40950        5.6140980E-18
   61.57100        5.6151253E-18
   61.73250        5.6153929E-18
   61.89400        5.6150683E-18
   62.05550        5.6145980E-18
   62.21700        5.6144086E-18
   62.37850        5.6146576E-18
   62.54000        5.6151688E-18
   62.70150        5.6155852E-18
   62.86300        5.6156469E-18
   63.02450        5.6154194E-18
   63.18600        5.6152974E-18
   63.34750        5.6157337E-18
   63.50900        5.6168624E-18
   63.67050        5.6183149E-18
   63.83200        5.6194254E-18
   63.99350        5.6197212E-18
   64.15500        5.6193270E-18
   64.31650        5.6189233E-18
   64.47800        5.6192497E-18
   64.63950        5.6205107E-18
   64.80100        5.6221890E-18
   64.96250        5.6234381E-18
   65.12400        5.6237532E-18
   65.28550        5.6233736E-18
   65.44700        5.6230601E-18
   65.60850        5.6234331E-18
   65.77000        5.6244282E-18
   65.93150        5.6253274E-18
   66.09300        5.6253299E-18
   66.25450        5.6241788E-18
   66.41600        5.6223251E-18
   66.57750        5.6205487E-18
   66.73900        5.6193659E-18
   66.90050        5.6187170E-18
   67.06200        5.6181354E-18
   67.22350        5.6172107E-18
   67.38500        5.6159285E-18
   67.54650        5.6146687E-18
   67.70800        5.6139011E-18
   67.86950        5.6138589E-18
   68.03100        5.6144057E-18
   68.19250        5.6151382E-18
   68.35400        5.6156407E-18
   68.51550        5.6157370E-18
   68.67700        5.6156051E-18
   68.83850        5.6156733E-18
   69.00000        5.6163111E-18
   69.16150        5.6175188E-18
   69.32300        5.6188596E-18
   69.48450        5.6197518E-18
   69.64600        5.6199453E-18
   69.80750        5.6197952E-18
   69.96900        5.6200359E-18
   70.13050        5.6211687E-18
   70.29200        5.6229509E-18
   70.45350        5.6244692E-18
   70.61500        5.6248096E-18
   70.77650        5.6238045E-18
   70.93800        5.6221952E-18
   71.09950        5.6210467E-18
   71.26100        5.6208871E-18
   71.42250        5.6212982E-18
   71.58400        5.6213015E-18
   71.74550        5.6202001E-18
   71.90700        5.6181793E-18
   72.06850        5.6161759E-18
   72.23000        5.6151667E-18
   72.39150        5.6154674E-18
   72.55300        5.6165940E-18
   72.71450        5.6177144E-18
   72.87600        5.6182889E-18
   73.03750        5.6183997E-18
   73.19900        5.6185896E-18
   73.36050        5.6194077E-18
   73.52200        5.6210136E-18
   73.68350        5.6230795E-18
   73.84500        5.6250064E-18
   74.00650        5.6263026E-18
   74.16800        5.6268854E-18
   74.32950        5.6271219E-18
   74.49100        5.6275616E-18
   74.65250        5.6285190E-18
   74.81400        5.6298024E-18
   74.97550        5.6308261E-18
   75.13700        5.6310581E-18
   75.29850        5.6304844E-18
   75.46000        5.6296792E-18
   75.62150        5.6293624E-18
   75.78300        5.6297739E-18
   75.94450        5.6304046E-18
   76.10600        5.6303686E-18
   76.26750        5.6291489E-18
   76.42900        5.6270814E-18
   76.59050        5.6251260E-18
   76.75200        5.6240883E-18
   76.91350        5.6239327E-18
   77.07500        5.6237810E-18
   77.23650        5.6226175E-18
   77.39800        5.6201310E-18
   77.55950        5.6169865E-18
   77.72100        5.6143143E-18
   77.88250        5.6128374E-18
   78.04400        5.6123601E-18
   78.20550        5.6119982E-18
   78.36700        5.6109410E-18
   78.52850        5.6090989E-18
   78.69000        5.6071708E-18
   78.85150        5.6061202E-18
   79.01300        5.6064974E-18
   79.17450        5.6080955E-18
   79.33600        5.6101498E-18
   79.49750        5.6118840E-18
   79.65900        5.6130197E-18
   79.82050        5.6139007E-18
   79.98200        5.6151886E-18
   80.14350        5.6173426E-18
   80.30500        5.6202539E-18
   80.46650        5.6232648E-18
   80.62800        5.6256036E-18
   80.78950        5.6269342E-18
   80.95100        5.6276323E-18
   81.11250        5.6285203E-18
   81.27400        5.6302309E-18
   81.43550        5.6326657E-18
   81.59700        5.6350228E-18
   81.75850        5.6364137E-18
   81.92000        5.6365919E-18
   82.08150        5.6361783E-18
   82.24300        5.6361585E-18
   82.40450        5.6370473E-18
   82.56600        5.6384022E-18
   82.72750        5.6391409E-18
   82.88900        5.6384163E-18
   83.05050        5.6363351E-18
   83.21200        5.6338957E-18
   83.37350        5.6321988E-18
   83.53500        5.6315883E-18
   83.69650        5.6314324E-18
   83.85800        5.6306825E-18
   84.01950        5.6287457E-18
   84.18100        5.6259531E-18
   84.34250        5.6232946E-18
   84.50400        5.6216725E-18
   84.66550        5.6212680E-18
   84.82700        5.6214926E-18
   84.98850        5.6214967E-18
   85.15000        5.6208180E-18
   85.31150        5.6196914E-18
   85.47300        5.6188361E-18
   85.63450        5.6189167E-18
   85.79600        5.6200537E-18
   85.95750        5.6217022E-18
   86.11900        5.6230022E-18
   86.28050        5.6233554E-18
   86.44200        5.6228446E-18
   86.60350        5.6221688E-18
   86.76500        5.6220989E-18
   86.92650        5.6228553E-18
   87.08800        5.6238893E-18
   87.24950        5.6242926E-18
   87.41100        5.6235527E-18
   87.57250        5.6220505E-18
   87.73400        5.6208494E-18
   87.89550        5.6208895E-18
   88.05700        5.6222155E-18
   88.21850        5.6238984E-18
   88.38000        5.6247612E-18
   88.54150        5.6243269E-18
   88.70300        5.6232085E-18
   88.86450        5.6225993E-18
   89.02600        5.6232904E-18
   89.18750        5.6250060E-18
   89.34900        5.6265938E-18
   89.51050        5.6269193E-18
   89.67200        5.6257439E-18
   89.83350        5.6238984E-18
   89.99500        5.6226547E-18
   90.15650        5.6227966E-18
   90.31800        5.6241114E-18
   90.47950        5.6256376E-18
   90.64100        5.6264201E-18
   90.80250        5.6262042E-18
   90.96400        5.6255730E-18
   91.12550        5.6254783E-18
   91.28700        5.6265404E-18
   91.44850        5.6286076E-18
   91.61000        5.6308757E-18
   91.77150        5.6324647E-18
   91.93300        5.6330383E-18
   92.09450        5.6330061E-18
   92.25600        5.6331794E-18
   92.41750        5.6341095E-18
   92.57900        5.6356241E-18
   92.74050        5.6369244E-18
   92.90200        5.6371920E-18
   93.06350        5.6362499E-18
   93.22500        5.6347341E-18
   93.38650        5.6336074E-18
   93.54800        5.6333882E-18
   93.70950        5.6337332E-18
   93.87100        5.6337481E-18
   94.03250        5.6327906E-18
   94.19400        5.6310936E-18
   94.35550        5.6296606E-18
   94.51700        5.6294765E-18
   94.67850        5.6306681E-18
   94.84000        5.6323303E-18
   95.00150        5.6331765E-18
   95.16300        5.6325313E-18
   95.32450        5.6308405E-18
   95.48600        5.6293028E-18
   95.64750        5.6289136E-18
   95.80900        5.6296800E-18
   95.97050        5.6306313E-18
   96.13200        5.6305767E-18
   96.29350        5.6290236E-18
   96.45500        5.6265446E-18
   96.61650        5.6243633E-18
   96.77800        5.6234840E-18
   96.93950        5.6240130E-18
   97.10100        5.6251313E-18
   97.26250        5.6257149E-18
   97.42400        5.6251446E-18
   97.58550        5.6237392E-18
   97.74700        5.6225224E-18
   97.90850        5.6224773E-18
   98.07000        5.6238269E-18
   98.23150        5.6258630E-18
   98.39300        5.6274627E-18
   98.55450        5.6279322E-18
   98.71600        5.6275434E-18
   98.87750        5.6273118E-18
   99.03900        5.6281704E-18
   99.20050        5.6301978E-18
   99.36200        5.6325371E-18
   99.52350        5.6340818E-18
   99.68500        5.6343833E-18
   99.84650        5.6340008E-18
   100.0080        5.6340111E-18
   100.1695        5.6350815E-18
   100.3310        5.6368926E-18
   100.4925        5.6383981E-18
   100.6540        5.6386963E-18
   100.8155        5.6377888E-18
   100.9770        5.6365828E-18
   101.1385        5.6361556E-18
   101.3000        5.6368856E-18
   101.4615        5.6381404E-18
   101.6230        5.6387529E-18
   101.7845        5.6379034E-18
   101.9460        5.6357283E-18
   102.1075        5.6332265E-18
   102.2690        5.6315333E-18
   102.4305        5.6311123E-18
   102.5920        5.6314373E-18
   102.7535        5.6314150E-18
   102.9150        5.6302321E-18
   103.0765        5.6280227E-18
   103.2380        5.6258410E-18
   103.3995        5.6249270E-18
   103.5610        5.6257927E-18
   103.7225        5.6278048E-18
   103.8840        5.6296229E-18
   104.0455        5.6301957E-18
   104.2070        5.6295510E-18
   104.3685        5.6287507E-18
   104.5300        5.6290220E-18
   104.6915        5.6307528E-18
   104.8530        5.6331492E-18
   105.0145        5.6348466E-18
   105.1760        5.6349706E-18
   105.3375        5.6338151E-18
   105.4990        5.6325937E-18
   105.6605        5.6324779E-18
   105.8220        5.6336898E-18
   105.9835        5.6353631E-18
   106.1450        5.6362602E-18
   106.3065        5.6357614E-18
   106.4680        5.6343445E-18
   106.6295        5.6331955E-18
   106.7910        5.6332766E-18
   106.9525        5.6345711E-18
   107.1140        5.6360733E-18
   107.2755        5.6365278E-18
   107.4370        5.6353656E-18
   107.5985        5.6331446E-18
   107.7600        5.6311449E-18
   107.9215        5.6304331E-18
   108.0830        5.6310754E-18
   108.2445        5.6321177E-18
   108.4060        5.6323452E-18
   108.5675        5.6312562E-18
   108.7290        5.6294943E-18
   108.8905        5.6283966E-18
   109.0520        5.6289748E-18
   109.2135        5.6311085E-18
   109.3750        5.6336037E-18
   109.5365        5.6350947E-18
   109.6980        5.6350885E-18
   109.8595        5.6343192E-18
   110.0210        5.6341377E-18
   110.1825        5.6354194E-18
   110.3440        5.6378621E-18
   110.5055        5.6402315E-18
   110.6670        5.6413441E-18
   110.8285        5.6410033E-18
   110.9900        5.6401236E-18
   111.1515        5.6399693E-18
   111.3130        5.6411129E-18
   111.4745        5.6429596E-18
   111.6360        5.6442115E-18
   111.7975        5.6438868E-18
   111.9590        5.6420823E-18
   112.1205        5.6398994E-18
   112.2820        5.6386073E-18
   112.4435        5.6386930E-18
   112.6050        5.6395061E-18
   112.7665        5.6397786E-18
   112.9280        5.6386127E-18
   113.0895        5.6362040E-18
   113.2510        5.6337427E-18
   113.4125        5.6325511E-18
   113.5740        5.6330793E-18
   113.7355        5.6345264E-18
   113.8970        5.6353784E-18
   114.0585        5.6345165E-18
   114.2200        5.6320767E-18
   114.3815        5.6294008E-18
   114.5430        5.6280629E-18
   114.7045        5.6286857E-18
   114.8660        5.6304757E-18
   115.0275        5.6318654E-18
   115.1890        5.6317773E-18
   115.3505        5.6305051E-18
   115.5120        5.6294897E-18
   115.6735        5.6301709E-18
   115.8350        5.6328179E-18
   115.9965        5.6362912E-18
   116.1580        5.6389051E-18
   116.3195        5.6396868E-18
   116.4810        5.6390325E-18
   116.6425        5.6382587E-18
   116.8040        5.6384775E-18
   116.9655        5.6397294E-18
   117.1270        5.6410380E-18
   117.2885        5.6412721E-18
   117.4500        5.6400805E-18
   117.6115        5.6381702E-18
   117.7730        5.6367627E-18
   117.9345        5.6366833E-18
   118.0960        5.6377723E-18
   118.2575        5.6390296E-18
   118.4190        5.6393857E-18
   118.5805        5.6385106E-18
   118.7420        5.6370733E-18