  -27.90000        9.5383636E-18
  -27.73850        9.5677004E-18
  -27.57700        9.6083993E-18
  -27.41550        9.6382026E-18
  -27.25400        9.6465050E-18
  -27.09250        9.6414063E-18
  -26.93100        9.6427215E-18
  -26.76950        9.6662970E-18
  -26.60800        9.7114313E-18
  -26.44650        9.7608545E-18
  -26.28500        9.7932973E-18
  -26.12350        9.7992208E-18
  -25.96200        9.7879256E-18
  -25.80050        9.7807109E-18
  -25.63900        9.7951709E-18
  -25.47750        9.8323411E-18
  -25.31600        9.8762511E-18
  -25.15450        9.9061165E-18
  -24.99300        9.9119928E-18
  -24.83150        9.9021477E-18
  -24.67000        9.8966949E-18
  -24.50850        9.9123361E-18
  -24.34700        9.9497271E-18
  -24.18550        9.9929597E-18
  -24.02400        1.0021535E-17
  -23.86250        1.0025796E-17
  -23.70100        1.0014216E-17
  -23.53950        1.0007060E-17
  -23.37800        1.0021172E-17
  -23.21650        1.0057318E-17
  -23.05500        1.0099577E-17
  -22.89350        1.0127266E-17
  -22.73200        1.0130415E-17
  -22.57050        1.0117210E-17
  -22.40900        1.0107796E-17
  -22.24750        1.0119129E-17
  -22.08600        1.0152234E-17
  -21.92450        1.0191511E-17
  -21.76300        1.0216590E-17
  -21.60150        1.0217849E-17
  -21.44000        1.0203899E-17
  -21.27850        1.0195334E-17
  -21.11700        1.0209377E-17
  -20.95550        1.0246892E-17
  -20.79400        1.0291511E-17
  -20.63250        1.0321588E-17
  -20.47100        1.0326086E-17
  -20.30950        1.0312555E-17
  -20.14800        1.0301273E-17
  -19.98650        1.0309956E-17
  -19.82500        1.0340493E-17
  -19.66350        1.0377626E-17
  -19.50200        1.0400566E-17
  -19.34050        1.0398846E-17
  -19.17900        1.0380522E-17
  -19.01750        1.0366560E-17
  -18.85600        1.0375512E-17
  -18.69450        1.0409865E-17
  -18.53300        1.0454211E-17
  -18.37150        1.0486564E-17
  -18.21000        1.0494442E-17
  -18.04850        1.0483706E-17
  -17.88700        1.0473691E-17
  -17.72550        1.0482326E-17
  -17.56400        1.0512449E-17
  -17.40250        1.0549579E-17
  -17.24100        1.0572821E-17
  -17.07950        1.0570692E-17
  -16.91800        1.0550015E-17
  -16.75650        1.0531200E-17
  -16.59500        1.0533406E-17
  -16.43350        1.0560706E-17
  -16.27200        1.0599489E-17
  -16.11050        1.0628993E-17
  -15.94900        1.0636969E-17
  -15.78750        1.0628724E-17
  -15.62600        1.0622823E-17
  -15.46450        1.0636729E-17
  -15.30300        1.0673278E-17
  -15.14150        1.0718139E-17
  -14.98000        1.0750215E-17
  -14.81850        1.0757173E-17
  -14.65700        1.0744466E-17
  -14.49550        1.0731089E-17
  -14.33400        1.0735249E-17
  -14.17250        1.0760701E-17
  -14.01100        1.0793989E-17
  -13.84950        1.0814703E-17
  -13.68800        1.0811009E-17
  -13.52650        1.0788823E-17
  -13.36500        1.0767673E-17
  -13.20350        1.0766326E-17
  -13.04200        1.0788927E-17
  -12.88050        1.0822092E-17
  -12.71900        1.0845148E-17
  -12.55750        1.0845871E-17
  -12.39600        1.0829908E-17
  -12.23450        1.0816725E-17
  -12.07300        1.0825074E-17
  -11.91150        1.0858820E-17
  -11.75000        1.0903731E-17
  -11.58850        1.0937722E-17
  -11.42700        1.0946931E-17
  -11.26550        1.0935654E-17
  -11.10400        1.0922769E-17
  -10.94250        1.0927315E-17
  -10.78100        1.0954039E-17
  -10.61950        1.0989735E-17
  -10.45800        1.1013113E-17
  -10.29650        1.1010879E-17
  -10.13500        1.0987969E-17
  -9.973500        1.0964286E-17
  -9.812000        1.0960281E-17
  -9.650500        1.0982095E-17
  -9.489000        1.1017263E-17
  -9.327500        1.1044185E-17
  -9.166000        1.1048255E-17
  -9.004500        1.1032607E-17
  -8.843000        1.1015504E-17
  -8.681500        1.1016363E-17
  -8.520000        1.1040955E-17
  -8.358500        1.1076890E-17
  -8.197000        1.1102804E-17
  -8.035500        1.1104375E-17
  -7.874000        1.1085143E-17
  -7.712500        1.1064019E-17
  -7.551000        1.1061370E-17
  -7.389500        1.1084076E-17
  -7.228000        1.1120738E-17
  -7.066500        1.1150551E-17
  -6.905000        1.1159106E-17
  -6.743500        1.1149208E-17
  -6.582000        1.1138595E-17
  -6.420500        1.1146304E-17
  -6.259000        1.1178021E-17
  -6.097500        1.1221435E-17
  -5.936000        1.1255169E-17
  -5.774500        1.1264579E-17
  -5.613000        1.1252580E-17
  -5.451500        1.1237360E-17
  -5.290000        1.1238685E-17
  -5.128500        1.1263063E-17
  -4.967000        1.1298899E-17
  -4.805500        1.1325300E-17
  -4.644000        1.1327920E-17
  -4.482500        1.1309940E-17
  -4.321000        1.1289877E-17
  -4.159500        1.1287807E-17
  -3.998000        1.1310301E-17
  -3.836500        1.1345426E-17
  -3.675000        1.1371606E-17
  -3.513500        1.1373799E-17
  -3.352000        1.1354842E-17
  -3.190500        1.1333437E-17
  -3.029000        1.1330189E-17
  -2.867500        1.1352134E-17
  -2.706000        1.1387353E-17
  -2.544500        1.1413733E-17
  -2.383000        1.1415380E-17
  -2.221500        1.1394422E-17
  -2.060000        1.1369354E-17
  -1.898500        1.1361187E-17
  -1.737000        1.1377736E-17
  -1.575500        1.1407855E-17
  -1.414000        1.1429916E-17
  -1.252500        1.1428217E-17
  -1.091000        1.1405029E-17
 -0.9295000        1.1379239E-17
 -0.7680000        1.1372558E-17
 -0.6065000        1.1393588E-17
 -0.4450000        1.1431618E-17
 -0.2835000        1.1464726E-17
 -0.1220000        1.1476105E-17
  3.9500002E-02    1.1466368E-17
  0.2010000        1.1452638E-17
  0.3625000        1.1455228E-17
  0.5240000        1.1481946E-17
  0.6855000        1.1521886E-17
  0.8470000        1.1553354E-17
   1.008500        1.1559984E-17
   1.170000        1.1542933E-17
   1.331500        1.1520037E-17
   1.493000        1.1512591E-17
   1.654500        1.1529677E-17
   1.816000        1.1561766E-17
   1.977500        1.1588314E-17
   2.139000        1.1593548E-17
   2.300500        1.1578550E-17
   2.462000        1.1560521E-17
   2.623500        1.1559813E-17
   2.785000        1.1584481E-17
   2.946500        1.1623991E-17
   3.108000        1.1656883E-17
   3.269500        1.1666661E-17
   3.431000        1.1654028E-17
   3.592500        1.1636237E-17
   3.754000        1.1634036E-17
   3.915500        1.1655970E-17
   4.077000        1.1691875E-17
   4.238500        1.1720475E-17
   4.400000        1.1725428E-17
   4.561500        1.1707728E-17
   4.723000        1.1685110E-17
   4.884500        1.1678832E-17
   5.046000        1.1697721E-17
   5.207500        1.1731495E-17
   5.369000        1.1758421E-17
   5.530500        1.1761621E-17
   5.692000        1.1741797E-17
   5.853500        1.1716826E-17
   6.015000        1.1708471E-17
   6.176500        1.1726148E-17
   6.338000        1.1759892E-17
   6.499500        1.1787791E-17
   6.661000        1.1792342E-17
   6.822500        1.1773507E-17
   6.984000        1.1748700E-17
   7.145500        1.1739727E-17
   7.307000        1.1756458E-17
   7.468500        1.1789444E-17
   7.630000        1.1817005E-17
   7.791500        1.1821506E-17
   7.953000        1.1802628E-17
   8.114500        1.1777728E-17
   8.276000        1.1769013E-17
   8.437500        1.1787112E-17
   8.599000        1.1823295E-17
   8.760500        1.1856146E-17
   8.922000        1.1867603E-17
   9.083500        1.1856369E-17
   9.245000        1.1838635E-17
   9.406500        1.1835645E-17
   9.568000        1.1857481E-17
   9.729500        1.1895263E-17
   9.891000        1.1927625E-17
   10.05250        1.1936633E-17
   10.21400        1.1921169E-17
   10.37550        1.1897780E-17
   10.53700        1.1888338E-17
   10.69850        1.1903804E-17
   10.86000        1.1936246E-17
   11.02150        1.1965101E-17
   11.18300        1.1972901E-17
   11.34450        1.1958609E-17
   11.50600        1.1938489E-17
   11.66750        1.1933820E-17
   11.82900        1.1954710E-17
   11.99050        1.1992221E-17
   12.15200        1.2024806E-17
   12.31350        1.2034300E-17
   12.47500        1.2019438E-17
   12.63650        1.1996743E-17
   12.79800        1.1988085E-17
   12.95950        1.2004252E-17
   13.12100        1.2036866E-17
   13.28250        1.2064800E-17
   13.44400        1.2070253E-17
   13.60550        1.2052403E-17
   13.76700        1.2028308E-17
   13.92850        1.2020301E-17
   14.09000        1.2039304E-17
   14.25150        1.2076574E-17
   14.41300        1.2110137E-17
   14.57450        1.2121132E-17
   14.73600        1.2107861E-17
   14.89750        1.2086997E-17
   15.05900        1.2081027E-17
   15.22050        1.2101299E-17
   15.38200        1.2139393E-17
   15.54350        1.2173272E-17
   15.70500        1.2183660E-17
   15.86650        1.2168369E-17
   16.02800        1.2143862E-17
   16.18950        1.2132864E-17
   16.35100        1.2147304E-17
   16.51250        1.2179363E-17
   16.67400        1.2207356E-17
   16.83550        1.2212054E-17
   16.99700        1.2191215E-17
   17.15850        1.2161441E-17
   17.32000        1.2145975E-17
   17.48150        1.2157585E-17
   17.64300        1.2189340E-17
   17.80450        1.2220141E-17
   17.96600        1.2230760E-17
   18.12750        1.2218334E-17
   18.28900        1.2198404E-17
   18.45050        1.2193027E-17
   18.61200        1.2213945E-17
   18.77350        1.2253479E-17
   18.93500        1.2290029E-17
   19.09650        1.2304025E-17
   19.25800        1.2292386E-17
   19.41950        1.2270620E-17
   19.58100        1.2261050E-17
   19.74250        1.2276018E-17
   19.90400        1.2308694E-17
   20.06550        1.2338410E-17
   20.22700        1.2346463E-17
   20.38850        1.2330452E-17
   20.55000        1.2306295E-17
   20.71150        1.2296348E-17
   20.87300        1.2312539E-17
   21.03450        1.2347249E-17
   21.19600        1.2378894E-17
   21.35750        1.2388061E-17
   21.51900        1.2372112E-17
   21.68050        1.2347204E-17
   21.84200        1.2336170E-17
   22.00350        1.2351351E-17
   22.16500        1.2385311E-17
   22.32650        1.2416462E-17
   22.48800        1.2425407E-17
   22.64950        1.2409667E-17
   22.81100        1.2385705E-17
   22.97250        1.2376630E-17
   23.13400        1.2394808E-17
   23.29550        1.2432425E-17
   23.45700        1.2467134E-17
   23.61850        1.2478611E-17
   23.78000        1.2463655E-17
   23.94150        1.2438517E-17
   24.10300        1.2426738E-17
   24.26450        1.2441558E-17
   24.42600        1.2476081E-17
   24.58750        1.2508514E-17
   24.74900        1.2518575E-17
   24.91050        1.2502773E-17
   25.07200        1.2477089E-17
   25.23350        1.2465063E-17
   25.39500        1.2480174E-17
   25.55650        1.2515740E-17
   25.71800        1.2549883E-17
   25.87950        1.2561863E-17
   26.04100        1.2547523E-17
   26.20250        1.2522306E-17
   26.36400        1.2509608E-17
   26.52550        1.2523233E-17
   26.68700        1.2557136E-17
   26.84850        1.2590104E-17
   27.01000        1.2601824E-17
   27.17150        1.2588193E-17
   27.33300        1.2564352E-17
   27.49450        1.2553187E-17
   27.65600        1.2567959E-17
   27.81750        1.2602189E-17
   27.97900        1.2634422E-17
   28.14050        1.2644295E-17
   28.30200        1.2627828E-17
   28.46350        1.2600410E-17
   28.62500        1.2585244E-17
   28.78650        1.2595948E-17
   28.94800        1.2626452E-17
   29.10950        1.2655816E-17
   29.27100        1.2664319E-17
   29.43250        1.2648641E-17
   29.59400        1.2624623E-17
   29.75550        1.2615451E-17
   29.91700        1.2634125E-17
   30.07850        1.2673457E-17
   30.24000        1.2711189E-17
   30.40150        1.2726459E-17
   30.56300        1.2715265E-17
   30.72450        1.2693278E-17
   30.88600        1.2683906E-17
   31.04750        1.2700530E-17
   31.20900        1.2736315E-17
   31.37050        1.2769260E-17
   31.53200        1.2778747E-17
   31.69350        1.2761173E-17
   31.85500        1.2732877E-17
   32.01650        1.2718102E-17
   32.17800        1.2730947E-17
   32.33950        1.2764841E-17
   32.50100        1.2797448E-17
   32.66250        1.2807399E-17
   32.82400        1.2790330E-17
   32.98550        1.2762224E-17
   33.14700        1.2747518E-17
   33.30850        1.2760890E-17
   33.47000        1.2796358E-17
   33.63150        1.2831885E-17
   33.79300        1.2846014E-17
   33.95450        1.2834021E-17
   34.11600        1.2811446E-17
   34.27750        1.2802331E-17
   34.43900        1.2821008E-17
   34.60050        1.2861133E-17
   34.76200        1.2900194E-17
   34.92350        1.2916129E-17
   35.08500        1.2903587E-17
   35.24650        1.2877664E-17
   35.40800        1.2862353E-17
   35.56950        1.2872450E-17
   35.73100        1.2902525E-17
   35.89250        1.2931262E-17
   36.05400        1.2937821E-17
   36.21550        1.2917888E-17
   36.37700        1.2887235E-17
   36.53850        1.2870097E-17
   36.70000        1.2881053E-17
   36.86150        1.2914090E-17
   37.02300        1.2947110E-17
   37.18450        1.2958531E-17
   37.34600        1.2943464E-17
   37.50750        1.2917281E-17
   37.66900        1.2903853E-17
   37.83050        1.2917372E-17
   37.99200        1.2951489E-17
   38.15350        1.2984058E-17
   38.31500        1.2993897E-17
   38.47650        1.2976930E-17
   38.63800        1.2949451E-17
   38.79950        1.2935949E-17
   38.96100        1.2950642E-17
   39.12250        1.2986640E-17
   39.28400        1.3020970E-17
   39.44550        1.3031738E-17
   39.60700        1.3014542E-17
   39.76850        1.2985787E-17
   39.93000        1.2970351E-17
   40.09150        1.2982878E-17
   40.25300        1.3016785E-17
   40.41450        1.3049270E-17
   40.57600        1.3058612E-17
   40.73750        1.3040744E-17
   40.89900        1.3012568E-17
   41.06050        1.2999441E-17
   41.22200        1.3016174E-17
   41.38350        1.3055818E-17
   41.54500        1.3094698E-17
   41.70650        1.3110000E-17
   41.86800        1.3096700E-17
   42.02950        1.3071159E-17
   42.19100        1.3058665E-17
   42.35250        1.3074301E-17
   42.51400        1.3111561E-17
   42.67550        1.3147272E-17
   42.83700        1.3159109E-17
   42.99850        1.3142506E-17
   43.16000        1.3114162E-17
   43.32150        1.3099525E-17
   43.48300        1.3113633E-17
   43.64450        1.3149775E-17
   43.80600        1.3184500E-17
   43.96750        1.3195207E-17
   44.12900        1.3177073E-17
   44.29050        1.3146559E-17
   44.45200        1.3128915E-17
   44.61350        1.3139145E-17
   44.77500        1.3170843E-17
   44.93650        1.3201292E-17
   45.09800        1.3208955E-17
   45.25950        1.3190056E-17
   45.42100        1.3161667E-17
   45.58250        1.3148925E-17
   45.74400        1.3166038E-17
   45.90550        1.3205447E-17
   46.06700        1.3243375E-17
   46.22850        1.3257563E-17
   46.39000        1.3243808E-17
   46.55150        1.3218823E-17
   46.71300        1.3207285E-17
   46.87450        1.3222920E-17
   47.03600        1.3257946E-17
   47.19750        1.3288912E-17
   47.35900        1.3294534E-17
   47.52050        1.3272022E-17
   47.68200        1.3239528E-17
   47.84350        1.3222758E-17
   48.00500        1.3235810E-17
   48.16650        1.3270649E-17
   48.32800        1.3303193E-17
   48.48950        1.3311489E-17
   48.65100        1.3292282E-17
   48.81250        1.3263514E-17
   48.97400        1.3250782E-17
   49.13550        1.3267962E-17
   49.29700        1.3306609E-17
   49.45850        1.3342176E-17
   49.62000        1.3352416E-17
   49.78150        1.3334123E-17
   49.94300        1.3305556E-17
   50.10450        1.3292688E-17
   50.26600        1.3309594E-17
   50.42750        1.3347749E-17
   50.58900        1.3382337E-17
   50.75050        1.3390822E-17
   50.91200        1.3369809E-17
   51.07350        1.3337503E-17
   51.23500        1.3319984E-17
   51.39650        1.3331634E-17
   51.55800        1.3364517E-17
   51.71950        1.3394637E-17
   51.88100        1.3400311E-17
   52.04250        1.3378746E-17
   52.20400        1.3348291E-17
   52.36550        1.3334673E-17
   52.52700        1.3351632E-17
   52.68850        1.3390581E-17
   52.85000        1.3427042E-17
   53.01150        1.3438993E-17
   53.17300        1.3423228E-17
   53.33450        1.3397442E-17
   53.49600        1.3386529E-17
   53.65750        1.3403538E-17
   53.81900        1.3439716E-17
   53.98050        1.3471207E-17
   54.14200        1.3477272E-17
   54.30350        1.3456212E-17
   54.46500        1.3426864E-17
   54.62650        1.3414520E-17
   54.78800        1.3431883E-17
   54.94950        1.3469490E-17
   55.11100        1.3502841E-17
   55.27250        1.3510874E-17
   55.43400        1.3491805E-17
   55.59550        1.3464337E-17
   55.75700        1.3453313E-17
   55.91850        1.3470686E-17
   56.08000        1.3506266E-17
   56.24150        1.3535325E-17
   56.40300        1.3537348E-17
   56.56450        1.3511766E-17
   56.72600        1.3478702E-17
   56.88750        1.3464070E-17
   57.04900        1.3480234E-17
   57.21050        1.3516805E-17
   57.37200        1.3548562E-17
   57.53350        1.3554519E-17
   57.69500        1.3533738E-17
   57.85650        1.3505935E-17
   58.01800        1.3496448E-17
   58.17950        1.3516946E-17
   58.34100        1.3556460E-17
   58.50250        1.3589533E-17
   58.66400        1.3595301E-17
   58.82550        1.3573160E-17
   58.98700        1.3543161E-17
   59.14850        1.3530911E-17
   59.31000        1.3548347E-17
   59.47150        1.3584880E-17
   59.63300        1.3615505E-17
   59.79450        1.3619706E-17
   59.95600        1.3596874E-17
   60.11750        1.3566653E-17
   60.27900        1.3554031E-17
   60.44050        1.3570479E-17
   60.60200        1.3605405E-17
   60.76350        1.3634329E-17
   60.92500        1.3637563E-17
   61.08650        1.3615189E-17
   61.24800        1.3587013E-17
   61.40950        1.3577558E-17
   61.57100        1.3597484E-17
   61.73250        1.3635526E-17
   61.89400        1.3667002E-17
   62.05550        1.3672418E-17
   62.21700        1.3652028E-17
   62.37850        1.3625350E-17
   62.54000        1.3616089E-17
   62.70150        1.3634017E-17
   62.86300        1.3667583E-17
   63.02450        1.3692864E-17
   63.18600        1.3691986E-17
   63.34750        1.3667004E-17
   63.50900        1.3638671E-17
   63.67050        1.3631030E-17
   63.83200        1.3653443E-17
   63.99350        1.3693646E-17
   64.15500        1.3727049E-17
   64.31650        1.3735232E-17
   64.47800        1.3719618E-17
   64.63950        1.3700036E-17
   64.80100        1.3699282E-17
   64.96250        1.3725435E-17
   65.12400        1.3765349E-17
   65.28550        1.3794307E-17
   65.44700        1.3794586E-17
   65.60850        1.3768887E-17
   65.77000        1.3738453E-17
   65.93150        1.3727257E-17
   66.09300        1.3744184E-17
   66.25450        1.3776624E-17
   66.41600        1.3800280E-17
   66.57750        1.3797687E-17
   66.73900        1.3771437E-17
   66.90050        1.3742155E-17
   67.06200        1.3732824E-17
   67.22350        1.3751378E-17
   67.38500        1.3784721E-17
   67.54650        1.3808632E-17
   67.70800        1.3806051E-17
   67.86950        1.3779911E-17
   68.03100        1.3750912E-17
   68.19250        1.3741979E-17
   68.35400        1.3761159E-17
   68.51550        1.3795801E-17
   68.67700        1.3822305E-17
   68.83850        1.3823986E-17
   69.00000        1.3803567E-17
   69.16150        1.3780899E-17
   69.32300        1.3777755E-17
   69.48450        1.3801255E-17
   69.64600        1.3838493E-17
   69.80750        1.3866366E-17
   69.96900        1.3869088E-17
   70.13050        1.3850079E-17
   70.29200        1.3829255E-17
   70.45350        1.3827826E-17
   70.61500        1.3852194E-17
   70.77650        1.3889132E-17
   70.93800        1.3915803E-17
   71.09950        1.3916948E-17
   71.26100        1.3896158E-17
   71.42250        1.3872800E-17
   71.58400        1.3867040E-17
   71.74550        1.3884442E-17
   71.90700        1.3911793E-17
   72.06850        1.3927296E-17
   72.23000        1.3917324E-17
   72.39150        1.3887026E-17
   72.55300        1.3856758E-17
   72.71450        1.3847036E-17
   72.87600        1.3863331E-17
   73.03750        1.3892204E-17
   73.19900        1.3911608E-17
   73.36050        1.3907571E-17
   73.52200        1.3884645E-17
   73.68350        1.3862224E-17
   73.84500        1.3859595E-17
   74.00650        1.3881058E-17
   74.16800        1.3912438E-17
   74.32950        1.3931659E-17
   74.49100        1.3925405E-17
   74.65250        1.3899256E-17
   74.81400        1.3873665E-17
   74.97550        1.3868798E-17
   75.13700        1.3889696E-17
   75.29850        1.3922856E-17
   75.46000        1.3946715E-17
   75.62150        1.3948009E-17
   75.78300        1.3931677E-17
   75.94450        1.3916920E-17
   76.10600        1.3922475E-17
   76.26750        1.3952287E-17
   76.42900        1.3992342E-17
   76.59050        1.4021001E-17
   76.75200        1.4024991E-17
   76.91350        1.4009080E-17
   77.07500        1.3992220E-17
   77.23650        1.3993161E-17
   77.39800        1.4016418E-17
   77.55950        1.4049077E-17
   77.72100        1.4070771E-17
   77.88250        1.4069159E-17
   78.04400        1.4049226E-17
   78.20550        1.4029392E-17
   78.36700        1.4027524E-17
   78.52850        1.4047484E-17
   78.69000        1.4076396E-17
   78.85150        1.4094595E-17
   79.01300        1.4090640E-17
   79.17450        1.4069963E-17
   79.33600        1.4050670E-17
   79.49750        1.4049760E-17
   79.65900        1.4070289E-17
   79.82050        1.4099153E-17
   79.98200        1.4117063E-17
   80.14350        1.4113074E-17
   80.30500        1.4092650E-17
   80.46650        1.4073244E-17
   80.62800        1.4070853E-17
   80.78950        1.4087792E-17
   80.95100        1.4110957E-17
   81.11250        1.4121847E-17
   81.27400        1.4110763E-17
   81.43550        1.4084394E-17
   81.59700        1.4061086E-17
   81.75850        1.4057296E-17
   81.92000        1.4075466E-17
   82.08150        1.4102405E-17
   82.24300        1.4119358E-17
   82.40450        1.4116145E-17
   82.56600        1.4098700E-17
   82.72750        1.4084327E-17
   82.88900        1.4088317E-17
   83.05050        1.4112075E-17
   83.21200        1.4141763E-17
   83.37350        1.4158493E-17
   83.53500        1.4152399E-17
   83.69650        1.4129969E-17
   83.85800        1.4109216E-17
   84.01950        1.4106310E-17
   84.18100        1.4123775E-17
   84.34250        1.4149014E-17
   84.50400        1.4164130E-17
   84.66550        1.4159527E-17
   84.82700        1.4141063E-17
   84.98850        1.4125446E-17
   85.15000        1.4127500E-17
   85.31150        1.4148938E-17
   85.47300        1.4177044E-17
   85.63450        1.4194179E-17
   85.79600        1.4190872E-17
   85.95750        1.4172704E-17
   86.11900        1.4155919E-17
   86.28050        1.4155199E-17
   86.44200        1.4172818E-17
   86.60350        1.4197275E-17
   86.76500        1.4212263E-17
   86.92650        1.4209090E-17
   87.08800        1.4193175E-17
   87.24950        1.4179798E-17
   87.41100        1.4182450E-17
   87.57250        1.4202613E-17
   87.73400        1.4228701E-17
   87.89550        1.4244856E-17
   88.05700        1.4242919E-17
   88.21850        1.4228519E-17
   88.38000        1.4216737E-17
   88.54150        1.4220677E-17
   88.70300        1.4241622E-17
   88.86450        1.4268143E-17
   89.02600        1.4284771E-17
   89.18750        1.4283641E-17
   89.34900        1.4270277E-17
   89.51050        1.4259236E-17
   89.67200        1.4262912E-17
   89.83350        1.4282072E-17
   89.99500        1.4305232E-17
   90.15650        1.4317352E-17
   90.31800        1.4311285E-17
   90.47950        1.4293305E-17
   90.64100        1.4278598E-17
   90.80250        1.4280080E-17
   90.96400        1.4298948E-17
   91.12550        1.4323969E-17
   91.28700        1.4340001E-17
   91.44850        1.4339252E-17
   91.61000        1.4326876E-17
   91.77150        1.4316768E-17
   91.93300        1.4320784E-17
   92.09450        1.4339565E-17
   92.25600        1.4361778E-17
   92.41750        1.4372432E-17
   92.57900        1.4363970E-17
   92.74050        1.4341957E-17
   92.90200        1.4321102E-17
   93.06350        1.4314610E-17
   93.22500        1.4324816E-17
   93.38650        1.4341950E-17
   93.54800        1.4351898E-17
   93.70950        1.4347029E-17
   93.87100        1.4331983E-17
   94.03250        1.4320103E-17
   94.19400        1.4323294E-17
   94.35550        1.4342918E-17
   94.51700        1.4368577E-17
   94.67850        1.4385670E-17
   94.84000        1.4386027E-17
   95.00150        1.4373719E-17
   95.16300        1.4361735E-17
   95.32450        1.4362143E-17
   95.48600        1.4377137E-17
   95.64750        1.4397580E-17
   95.80900        1.4410100E-17
   95.97050        1.4407246E-17
   96.13200        1.4393110E-17
   96.29350        1.4380209E-17
   96.45500        1.4380063E-17
   96.61650        1.4394547E-17
   96.77800        1.4414522E-17
   96.93950        1.4426753E-17
   97.10100        1.4423869E-17
   97.26250        1.4409895E-17
   97.42400        1.4397224E-17
   97.58550        1.4397322E-17
   97.74700        1.4412160E-17
   97.90850        1.4432824E-17
   98.07000        1.4446278E-17
   98.23150        1.4445197E-17
   98.39300        1.4433445E-17
   98.55450        1.4423059E-17
   98.71600        1.4425072E-17
   98.87750        1.4441048E-17
   99.03900        1.4461761E-17
   99.20050        1.4474031E-17
   99.36200        1.4470612E-17
   99.52350        1.4455722E-17
   99.68500        1.4442031E-17
   99.84650        1.4441321E-17
   100.0080        1.4455767E-17
   100.1695        1.4476356E-17
   100.3310        1.4489645E-17
   100.4925        1.4487807E-17
   100.6540        1.4474456E-17
   100.8155        1.4461858E-17
   100.9770        1.4461620E-17
   101.1385        1.4475813E-17
   101.3000        1.4495214E-17
   101.4615        1.4506063E-17
   101.6230        1.4500321E-17
   101.7845        1.4481797E-17
   101.9460        1.4463544E-17
   102.1075        1.4458444E-17
   102.2690        1.4469937E-17
   102.4305        1.4489777E-17
   102.5920        1.4504438E-17
   102.7535        1.4505325E-17
   102.9150        1.4495210E-17
   103.0765        1.4486055E-17
   103.2380        1.4489860E-17
   103.3995        1.4509425E-17
   103.5610        1.4535894E-17
   103.7225        1.4555032E-17
   103.8840        1.4557562E-17
   104.0455        1.4545870E-17
   104.2070        1.4532106E-17
   104.3685        1.4529068E-17
   104.5300        1.4540718E-17
   104.6915        1.4559409E-17
   104.8530        1.4571935E-17
   105.0145        1.4569767E-17
   105.1760        1.4555765E-17
   105.3375        1.4542197E-17
   105.4990        1.4541564E-17
   105.6605        1.4557143E-17
   105.8220        1.4580456E-17
   105.9835        1.4597605E-17
   106.1450        1.4599726E-17
   106.3065        1.4589641E-17
   106.4680        1.4579662E-17
   106.6295        1.4582167E-17
   106.7910        1.4600069E-17
   106.9525        1.4624423E-17
   107.1140        1.4641032E-17
   107.2755        1.4641135E-17
   107.4370        1.4628031E-17
   107.5985        1.4614635E-17
   107.7600        1.4613654E-17
   107.9215        1.4627811E-17
   108.0830        1.4647577E-17
   108.2445        1.4658234E-17
   108.4060        1.4651088E-17
   108.5675        1.4630315E-17
   108.7290        1.4610218E-17
   108.8905        1.4604741E-17
   109.0520        1.4617104E-17
   109.2135        1.4637408E-17
   109.3750        1.4650095E-17
   109.5365        1.4645719E-17
   109.6980        1.4628142E-17
   109.8595        1.4611666E-17
   110.0210        1.4610147E-17
   110.1825        1.4626300E-17
   110.3440        1.4649327E-17
   110.5055        1.4662779E-17
   110.6670        1.4656841E-17
   110.8285        1.4635793E-17
   110.9900        1.4614979E-17
   111.1515        1.4609490E-17
   111.3130        1.4623003E-17
   111.4745        1.4645191E-17
   111.6360        1.4659695E-17
   111.7975        1.4656636E-17
   111.9590        1.4640190E-17
   112.1205        1.4625438E-17
   112.2820        1.4626800E-17
   112.4435        1.4646856E-17
   112.6050        1.4674091E-17
   112.7665        1.4691366E-17
   112.9280        1.4688747E-17
   113.0895        1.4670955E-17
   113.2510        1.4653723E-17
   113.4125        1.4651842E-17
   113.5740        1.4667970E-17
   113.7355        1.4690781E-17
   113.8970        1.4703834E-17
   114.0585        1.4698407E-17
   114.2200        1.4680383E-17
   114.3815        1.4665925E-17
   114.5430        1.4669165E-17
   114.7045        1.4691310E-17
   114.8660        1.4719522E-17
   115.0275        1.4736482E-17
   115.1890        1.4733465E-17
   115.3505        1.4716910E-17
   115.5120        1.4703460E-17
   115.6735        1.4707144E-17
   115.8350        1.4728480E-17
   115.9965        1.4753876E-17
   116.1580        1.4765902E-17
   116.3195        1.4756677E-17
   116.4810        1.4734127E-17
   116.6425        1.4716198E-17
   116.8040        1.4717293E-17
   116.9655        1.4737253E-17
   117.1270        1.4761387E-17
   117.2885        1.4771694E-17
   117.4500        1.4760747E-17
   117.6115        1.4737634E-17
   117.7730        1.4721242E-17
   117.9345        1.4725980E-17
   118.0960        1.4750756E-17
   118.2575        1.4779711E-17
   118.4190        1.4794188E-17
   118.5805        1.4786882E-17
   118.7420        1.4767333E-17