  -27.90000       -1.0588192E-18
  -27.73850       -1.0605327E-18
  -27.57700       -1.0629078E-18
  -27.41550       -1.0646465E-18
  -27.25400       -1.0651305E-18
  -27.09250       -1.0648342E-18
  -26.93100       -1.0649146E-18
  -26.76950       -1.0662934E-18
  -26.60800       -1.0689291E-18
  -26.44650       -1.0718151E-18
  -26.28500       -1.0737150E-18
  -26.12350       -1.0740707E-18
  -25.96200       -1.0734172E-18
  -25.80050       -1.0729902E-18
  -25.63900       -1.0738169E-18
  -25.47750       -1.0759729E-18
  -25.31600       -1.0785395E-18
  -25.15450       -1.0803018E-18
  -24.99300       -1.0806597E-18
  -24.83150       -1.0800760E-18
  -24.67000       -1.0797221E-18
  -24.50850       -1.0805973E-18
  -24.34700       -1.0827682E-18
  -24.18550       -1.0853133E-18
  -24.02400       -1.0870124E-18
  -23.86250       -1.0872690E-18
  -23.70100       -1.0865656E-18
  -23.53950       -1.0861049E-18
  -23.37800       -1.0869069E-18
  -23.21650       -1.0890353E-18
  -23.05500       -1.0915465E-18
  -22.89350       -1.0931968E-18
  -22.73200       -1.0933795E-18
  -22.57050       -1.0925773E-18
  -22.40900       -1.0919930E-18
  -22.24750       -1.0926456E-18
  -22.08600       -1.0946037E-18
  -21.92450       -1.0969403E-18
  -21.76300       -1.0984396E-18
  -21.60150       -1.0985145E-18
  -21.44000       -1.0976602E-18
  -21.27850       -1.0970968E-18
  -21.11700       -1.0978638E-18
  -20.95550       -1.1000394E-18
  -20.79400       -1.1026683E-18
  -20.63250       -1.1044591E-18
  -20.47100       -1.1047286E-18
  -20.30950       -1.1039064E-18
  -20.14800       -1.1032086E-18
  -19.98650       -1.1037229E-18
  -19.82500       -1.1055861E-18
  -19.66350       -1.1078728E-18
  -19.50200       -1.1092946E-18
  -19.34050       -1.1091895E-18
  -19.17900       -1.1080502E-18
  -19.01750       -1.1071846E-18
  -18.85600       -1.1077505E-18
  -18.69450       -1.1098899E-18
  -18.53300       -1.1126151E-18
  -18.37150       -1.1145439E-18
  -18.21000       -1.1149194E-18
  -18.04850       -1.1141518E-18
  -17.88700       -1.1134743E-18
  -17.72550       -1.1139857E-18
  -17.56400       -1.1158029E-18
  -17.40250       -1.1179730E-18
  -17.24100       -1.1192018E-18
  -17.07950       -1.1188389E-18
  -16.91800       -1.1173856E-18
  -16.75650       -1.1161395E-18
  -16.59500       -1.1162504E-18
  -16.43350       -1.1178965E-18
  -16.27200       -1.1201840E-18
  -16.11050       -1.1218364E-18
  -15.94900       -1.1221603E-18
  -15.78750       -1.1215502E-18
  -15.62600       -1.1211676E-18
  -15.46450       -1.1220383E-18
  -15.30300       -1.1242536E-18
  -15.14150       -1.1268815E-18
  -14.98000       -1.1286494E-18
  -14.81850       -1.1288857E-18
  -14.65700       -1.1280187E-18
  -14.49550       -1.1272446E-18
  -14.33400       -1.1276225E-18
  -14.17250       -1.1292822E-18
  -14.01100       -1.1313390E-18
  -13.84950       -1.1325807E-18
  -13.68800       -1.1324034E-18
  -13.52650       -1.1312841E-18
  -13.36500       -1.1304364E-18
  -13.20350       -1.1309068E-18
  -13.04200       -1.1327913E-18
  -12.88050       -1.1351652E-18
  -12.71900       -1.1367828E-18
  -12.55750       -1.1370218E-18
  -12.39600       -1.1363584E-18
  -12.23450       -1.1360043E-18
  -12.07300       -1.1369836E-18
  -11.91150       -1.1393359E-18
  -11.75000       -1.1420582E-18
  -11.58850       -1.1438308E-18
  -11.42700       -1.1439879E-18
  -11.26550       -1.1429970E-18
  -11.10400       -1.1420883E-18
  -10.94250       -1.1423134E-18
  -10.78100       -1.1437521E-18
  -10.61950       -1.1454642E-18
  -10.45800       -1.1462174E-18
  -10.29650       -1.1454445E-18
  -10.13500       -1.1436948E-18
  -9.973500       -1.1422488E-18
  -9.812000       -1.1421952E-18
  -9.650500       -1.1436508E-18
  -9.489000       -1.1457072E-18
  -9.327500       -1.1471185E-18
  -9.166000       -1.1472168E-18
  -9.004500       -1.1463667E-18
  -8.843000       -1.1456504E-18
  -8.681500       -1.1460207E-18
  -8.520000       -1.1475676E-18
  -8.358500       -1.1494440E-18
  -8.197000       -1.1504825E-18
  -8.035500       -1.1500598E-18
  -7.874000       -1.1485575E-18
  -7.712500       -1.1470869E-18
  -7.551000       -1.1466805E-18
  -7.389500       -1.1475449E-18
  -7.228000       -1.1489347E-18
  -7.066500       -1.1497334E-18
  -6.905000       -1.1493167E-18
  -6.743500       -1.1480387E-18
  -6.582000       -1.1469765E-18
  -6.420500       -1.1471123E-18
  -6.259000       -1.1485760E-18
  -6.097500       -1.1505394E-18
  -5.936000       -1.1518457E-18
  -5.774500       -1.1519108E-18
  -5.613000       -1.1511868E-18
  -5.451500       -1.1508314E-18
  -5.290000       -1.1518203E-18
  -5.128500       -1.1541906E-18
  -4.967000       -1.1570127E-18
  -4.805500       -1.1590986E-18
  -4.644000       -1.1599083E-18
  -4.482500       -1.1599467E-18
  -4.321000       -1.1603579E-18
  -4.159500       -1.1620365E-18
  -3.998000       -1.1649462E-18
  -3.836500       -1.1681477E-18
  -3.675000       -1.1704992E-18
  -3.513500       -1.1714884E-18
  -3.352000       -1.1715902E-18
  -3.190500       -1.1718835E-18
  -3.029000       -1.1732363E-18
  -2.867500       -1.1756541E-18
  -2.706000       -1.1782626E-18
  -2.544500       -1.1799260E-18
  -2.383000       -1.1800577E-18
  -2.221500       -1.1790322E-18
  -2.060000       -1.1779003E-18
  -1.898500       -1.1776095E-18
  -1.737000       -1.1783049E-18
  -1.575500       -1.1792352E-18
  -1.414000       -1.1793424E-18
  -1.252500       -1.1780959E-18
  -1.091000       -1.1759363E-18
 -0.9295000       -1.1739787E-18
 -0.7680000       -1.1731966E-18
 -0.6065000       -1.1737065E-18
 -0.4450000       -1.1747084E-18
 -0.2835000       -1.1751098E-18
 -0.1220000       -1.1743658E-18
  3.9500002E-02   -1.1728708E-18
  0.2010000       -1.1716188E-18
  0.3625000       -1.1714047E-18
  0.5240000       -1.1722034E-18
  0.6855000       -1.1731940E-18
  0.8470000       -1.1734014E-18
   1.008500       -1.1724471E-18
   1.170000       -1.1708421E-18
   1.331500       -1.1696008E-18
   1.493000       -1.1694987E-18
   1.654500       -1.1705107E-18
   1.816000       -1.1718628E-18
   1.977500       -1.1726286E-18
   2.139000       -1.1724316E-18
   2.300500       -1.1717145E-18
   2.462000       -1.1713923E-18
   2.623500       -1.1721594E-18
   2.785000       -1.1739679E-18
   2.946500       -1.1760604E-18
   3.108000       -1.1775229E-18
   3.269500       -1.1779582E-18
   3.431000       -1.1777701E-18
   3.592500       -1.1778510E-18
   3.754000       -1.1789059E-18
   3.915500       -1.1809138E-18
   4.077000       -1.1831309E-18
   4.238500       -1.1846272E-18
   4.400000       -1.1849624E-18
   4.561500       -1.1845034E-18
   4.723000       -1.1841462E-18
   4.884500       -1.1846486E-18
   5.046000       -1.1860796E-18
   5.207500       -1.1877939E-18
   5.369000       -1.1889485E-18
   5.530500       -1.1891654E-18
   5.692000       -1.1888308E-18
   5.853500       -1.1888029E-18
   6.015000       -1.1897579E-18
   6.176500       -1.1916739E-18
   6.338000       -1.1938491E-18
   6.499500       -1.1954222E-18
   6.661000       -1.1960020E-18
   6.822500       -1.1959228E-18
   6.984000       -1.1959529E-18
   7.145500       -1.1966906E-18
   7.307000       -1.1981084E-18
   7.468500       -1.1995833E-18
   7.630000       -1.2003860E-18
   7.791500       -1.2002358E-18
   7.953000       -1.1995197E-18
   8.114500       -1.1990210E-18
   8.276000       -1.1993601E-18
   8.437500       -1.2005455E-18
   8.599000       -1.2019695E-18
   8.760500       -1.2028363E-18
   8.922000       -1.2027336E-18
   9.083500       -1.2019247E-18
   9.245000       -1.2011507E-18
   9.406500       -1.2010715E-18
   9.568000       -1.2017641E-18
   9.729500       -1.2026467E-18
   9.891000       -1.2029021E-18
   10.05250       -1.2021012E-18
   10.21400       -1.2005600E-18
   10.37550       -1.1991406E-18
   10.53700       -1.1986305E-18
   10.69850       -1.1991562E-18
   10.86000       -1.2000989E-18
   11.02150       -1.2005749E-18
   11.18300       -1.2001245E-18
   11.34450       -1.1990666E-18
   11.50600       -1.1982478E-18
   11.66750       -1.1983914E-18
   11.82900       -1.1995476E-18
   11.99050       -1.2010714E-18
   12.15200       -1.2021316E-18
   12.31350       -1.2023479E-18
   12.47500       -1.2020554E-18
   12.63650       -1.2020012E-18
   12.79800       -1.2027294E-18
   12.95950       -1.2041442E-18
   13.12100       -1.2055834E-18
   13.28250       -1.2063193E-18
   13.44400       -1.2061028E-18
   13.60550       -1.2053402E-18
   13.76700       -1.2047878E-18
   13.92850       -1.2050008E-18
   14.09000       -1.2059565E-18
   14.25150       -1.2071126E-18
   14.41300       -1.2078525E-18
   14.57450       -1.2079735E-18
   14.73600       -1.2078554E-18
   14.89750       -1.2081856E-18
   15.05900       -1.2094413E-18
   15.22050       -1.2115033E-18
   15.38200       -1.2136971E-18
   15.54350       -1.2152498E-18
   15.70500       -1.2158374E-18
   15.86650       -1.2158196E-18
   16.02800       -1.2159586E-18
   16.18950       -1.2168256E-18
   16.35100       -1.2183523E-18
   16.51250       -1.2198774E-18
   16.67400       -1.2206586E-18
   16.83550       -1.2204652E-18
   16.99700       -1.2197783E-18
   17.15850       -1.2194398E-18
   17.32000       -1.2200172E-18
   17.48150       -1.2213755E-18
   17.64300       -1.2228040E-18
   17.80450       -1.2235775E-18
   17.96600       -1.2235093E-18
   18.12750       -1.2230529E-18
   18.28900       -1.2229061E-18
   18.45050       -1.2234570E-18
   18.61200       -1.2245046E-18
   18.77350       -1.2254474E-18
   18.93500       -1.2257669E-18
   19.09650       -1.2254120E-18
   19.25800       -1.2248076E-18
   19.41950       -1.2244988E-18
   19.58100       -1.2247314E-18
   19.74250       -1.2252909E-18
   19.90400       -1.2256947E-18
   20.06550       -1.2255675E-18
   20.22700       -1.2249091E-18
   20.38850       -1.2240764E-18
   20.55000       -1.2235189E-18
   20.71150       -1.2234699E-18
   20.87300       -1.2238081E-18
   21.03450       -1.2241820E-18
   21.19600       -1.2242948E-18
   21.35750       -1.2241307E-18
   21.51900       -1.2239671E-18
   21.68050       -1.2241626E-18
   21.84200       -1.2248894E-18
   22.00350       -1.2259838E-18
   22.16500       -1.2270342E-18
   22.32650       -1.2276438E-18
   22.48800       -1.2277019E-18
   22.64950       -1.2274622E-18
   22.81100       -1.2273727E-18
   22.97250       -1.2277620E-18
   23.13400       -1.2286258E-18
   23.29550       -1.2296615E-18
   23.45700       -1.2305224E-18
   23.61850       -1.2310834E-18
   23.78000       -1.2315297E-18
   23.94150       -1.2321945E-18
   24.10300       -1.2332886E-18
   24.26450       -1.2347199E-18
   24.42600       -1.2361434E-18
   24.58750       -1.2371792E-18
   24.74900       -1.2376405E-18
   24.91050       -1.2376026E-18
   25.07200       -1.2373145E-18
   25.23350       -1.2370418E-18
   25.39500       -1.2369461E-18
   25.55650       -1.2370375E-18
   25.71800       -1.2372066E-18
   25.87950       -1.2373204E-18
   26.04100       -1.2373432E-18
   26.20250       -1.2374112E-18
   26.36400       -1.2377878E-18
   26.52550       -1.2386784E-18
   26.68700       -1.2400288E-18
   26.84850       -1.2414754E-18
   27.01000       -1.2425369E-18
   27.17150       -1.2429444E-18
   27.33300       -1.2428497E-18
   27.49450       -1.2427144E-18
   27.65600       -1.2429327E-18
   27.81750       -1.2435003E-18
   27.97900       -1.2440194E-18
   28.14050       -1.2440552E-18
   28.30200       -1.2435494E-18
   28.46350       -1.2429177E-18
   28.62500       -1.2427479E-18
   28.78650       -1.2433285E-18
   28.94800       -1.2443967E-18
   29.10950       -1.2453048E-18
   29.27100       -1.2454898E-18
   29.43250       -1.2448763E-18
   29.59400       -1.2439306E-18
   29.75550       -1.2433310E-18
   29.91700       -1.2435163E-18
   30.07850       -1.2444195E-18
   30.24000       -1.2455616E-18
   30.40150       -1.2464188E-18
   30.56300       -1.2468100E-18
   30.72450       -1.2470469E-18
   30.88600       -1.2477186E-18
   31.04750       -1.2492348E-18
   31.20900       -1.2514383E-18
   31.37050       -1.2536028E-18
   31.53200       -1.2548681E-18
   31.69350       -1.2548408E-18
   31.85500       -1.2539063E-18
   32.01650       -1.2529858E-18
   32.17800       -1.2528767E-18
   32.33950       -1.2536771E-18
   32.50100       -1.2547439E-18
   32.66250       -1.2552564E-18
   32.82400       -1.2549379E-18
   32.98550       -1.2543396E-18
   33.14700       -1.2544161E-18
   33.30850       -1.2557177E-18
   33.47000       -1.2578665E-18
   33.63150       -1.2597584E-18
   33.79300       -1.2603622E-18
   33.95450       -1.2594886E-18
   34.11600       -1.2579248E-18
   34.27750       -1.2568205E-18
   34.43900       -1.2568163E-18
   34.60050       -1.2575814E-18
   34.76200       -1.2581416E-18
   34.92350       -1.2577205E-18
   35.08500       -1.2564230E-18
   35.24650       -1.2552174E-18
   35.40800       -1.2552067E-18
   35.56950       -1.2567590E-18
   35.73100       -1.2591568E-18
   35.89250       -1.2610493E-18
   36.05400       -1.2613976E-18
   36.21550       -1.2602162E-18
   36.37700       -1.2585636E-18
   36.53850       -1.2577776E-18
   36.70000       -1.2585019E-18
   36.86150       -1.2602405E-18
   37.02300       -1.2617709E-18
   37.18450       -1.2621152E-18
   37.34600       -1.2613401E-18
   37.50750       -1.2605579E-18
   37.66900       -1.2611055E-18
   37.83050       -1.2634814E-18
   37.99200       -1.2668579E-18
   38.15350       -1.2695873E-18
   38.31500       -1.2703680E-18
   38.47650       -1.2692075E-18
   38.63800       -1.2674260E-18
   38.79950       -1.2666615E-18
   38.96100       -1.2676220E-18
   39.12250       -1.2695578E-18
   39.28400       -1.2708835E-18
   39.44550       -1.2704772E-18
   39.60700       -1.2686307E-18
   39.76850       -1.2668646E-18
   39.93000       -1.2667187E-18
   40.09150       -1.2684619E-18
   40.25300       -1.2707776E-18
   40.41450       -1.2717222E-18
   40.57600       -1.2702233E-18
   40.73750       -1.2669427E-18
   40.89900       -1.2637986E-18
   41.06050       -1.2625234E-18
   41.22200       -1.2633735E-18
   41.38350       -1.2650093E-18
   41.54500       -1.2656247E-18
   41.70650       -1.2644517E-18
   41.86800       -1.2624448E-18
   42.02950       -1.2615964E-18
   42.19100       -1.2633949E-18
   42.35250       -1.2676097E-18
   42.51400       -1.2723495E-18
   42.67550       -1.2753693E-18
   42.83700       -1.2756720E-18
   42.99850       -1.2742087E-18
   43.16000       -1.2731436E-18
   43.32150       -1.2742105E-18
   43.48300       -1.2773805E-18
   43.64450       -1.2808638E-18
   43.80600       -1.2824789E-18
   43.96750       -1.2813704E-18
   44.12900       -1.2787555E-18
   44.29050       -1.2770674E-18
   44.45200       -1.2781061E-18
   44.61350       -1.2816000E-18
   44.77500       -1.2853164E-18
   44.93650       -1.2867011E-18
   45.09800       -1.2848245E-18
   45.25950       -1.2811201E-18
   45.42100       -1.2782938E-18
   45.58250       -1.2782351E-18
   45.74400       -1.2805528E-18
   45.90550       -1.2829186E-18
   46.06700       -1.2829519E-18
   46.22850       -1.2801789E-18
   46.39000       -1.2764829E-18
   46.55150       -1.2746769E-18
   46.71300       -1.2762984E-18
   46.87450       -1.2803602E-18
   47.03600       -1.2840613E-18
   47.19750       -1.2849239E-18
   47.35900       -1.2826867E-18
   47.52050       -1.2794908E-18
   47.68200       -1.2782069E-18
   47.84350       -1.2802033E-18
   48.00500       -1.2842871E-18
   48.16650       -1.2876302E-18
   48.32800       -1.2879730E-18
   48.48950       -1.2854084E-18
   48.65100       -1.2823626E-18
   48.81250       -1.2817685E-18
   48.97400       -1.2847967E-18
   49.13550       -1.2898969E-18
   49.29700       -1.2938956E-18
   49.45850       -1.2943601E-18
   49.62000       -1.2914429E-18
   49.78150       -1.2877846E-18
   49.94300       -1.2865206E-18
   50.10450       -1.2888804E-18
   50.26600       -1.2932319E-18
   50.42750       -1.2963270E-18
   50.58900       -1.2958383E-18
   50.75050       -1.2922358E-18
   50.91200       -1.2885123E-18
   51.07350       -1.2879120E-18
   51.23500       -1.2913922E-18
   51.39650       -1.2967954E-18
   51.55800       -1.3004299E-18
   51.71950       -1.2998558E-18
   51.88100       -1.2957350E-18
   52.04250       -1.2912818E-18
   52.20400       -1.2897327E-18
   52.36550       -1.2918095E-18
   52.52700       -1.2951587E-18
   52.68850       -1.2962269E-18
   52.85000       -1.2931036E-18
   53.01150       -1.2871147E-18
   53.17300       -1.2819023E-18
   53.33450       -1.2806961E-18
   53.49600       -1.2838732E-18
   53.65750       -1.2886801E-18
   53.81900       -1.2913263E-18
   53.98050       -1.2898544E-18
   54.14200       -1.2856014E-18
   54.30350       -1.2821502E-18
   54.46500       -1.2825696E-18
   54.62650       -1.2870384E-18
   54.78800       -1.2926673E-18
   54.94950       -1.2956796E-18
   55.11100       -1.2943146E-18
   55.27250       -1.2902396E-18
   55.43400       -1.2873663E-18
   55.59550       -1.2889151E-18
   55.75700       -1.2949389E-18
   55.91850       -1.3022020E-18
   56.08000       -1.3065704E-18
   56.24150       -1.3061193E-18
   56.40300       -1.3025730E-18
   56.56450       -1.2999380E-18
   56.72600       -1.3013614E-18
   56.88750       -1.3066407E-18
   57.04900       -1.3123451E-18
   57.21050       -1.3144742E-18
   57.37200       -1.3115901E-18
   57.53350       -1.3059904E-18
   57.69500       -1.3019795E-18
   57.85650       -1.3025790E-18
   58.01800       -1.3072154E-18
   58.17950       -1.3121844E-18
   58.34100       -1.3135090E-18
   58.50250       -1.3099827E-18
   58.66400       -1.3040431E-18
   58.82550       -1.2998461E-18
   58.98700       -1.3000581E-18
   59.14850       -1.3038256E-18
   59.31000       -1.3074752E-18
   59.47150       -1.3073868E-18
   59.63300       -1.3028469E-18
   59.79450       -1.2966970E-18
   59.95600       -1.2932670E-18
   60.11750       -1.2951347E-18
   60.27900       -1.3011580E-18
   60.44050       -1.3072805E-18
   60.60200       -1.3095165E-18
   60.76350       -1.3068939E-18
   60.92500       -1.3021393E-18
   61.08650       -1.2995605E-18
   61.24800       -1.3017214E-18
   61.40950       -1.3074126E-18
   61.57100       -1.3125220E-18
   61.73250       -1.3131765E-18
   61.89400       -1.3087792E-18
   62.05550       -1.3025989E-18
   62.21700       -1.2994101E-18
   62.37850       -1.3019511E-18
   62.54000       -1.3088729E-18
   62.70150       -1.3157438E-18
   62.86300       -1.3183681E-18
   63.02450       -1.3158986E-18
   63.18600       -1.3113791E-18
   63.34750       -1.3093263E-18
   63.50900       -1.3122028E-18
   63.67050       -1.3185042E-18
   63.83200       -1.3238963E-18
   63.99350       -1.3245188E-18
   64.15500       -1.3199362E-18
   64.31650       -1.3134938E-18
   64.47800       -1.3098308E-18
   64.63950       -1.3114322E-18
   64.80100       -1.3168196E-18
   64.96250       -1.3217292E-18
   65.12400       -1.3223685E-18
   65.28550       -1.3182744E-18
   65.44700       -1.3126209E-18
   65.60850       -1.3097750E-18
   65.77000       -1.3119607E-18
   65.93150       -1.3175540E-18
   66.09300       -1.3222882E-18
   66.25450       -1.3224839E-18
   66.41600       -1.3178751E-18
   66.57750       -1.3118936E-18
   66.73900       -1.3091408E-18
   66.90050       -1.3119256E-18
   67.06200       -1.3184714E-18
   67.22350       -1.3241805E-18
   67.38500       -1.3250506E-18
   67.54650       -1.3207141E-18
   67.70800       -1.3147795E-18
   67.86950       -1.3121534E-18
   68.03100       -1.3153014E-18
   68.19250       -1.3222908E-18
   68.35400       -1.3281761E-18
   68.51550       -1.3287471E-18
   68.67700       -1.3238104E-18
   68.83850       -1.3174530E-18
   69.00000       -1.3150185E-18
   69.16150       -1.3190453E-18
   69.32300       -1.3272577E-18
   69.48450       -1.3341785E-18
   69.64600       -1.3351804E-18
   69.80750       -1.3299278E-18
   69.96900       -1.3225904E-18
   70.13050       -1.3186582E-18
   70.29200       -1.3207715E-18
   70.45350       -1.3267371E-18
   70.61500       -1.3312126E-18
   70.77650       -1.3297929E-18
   70.93800       -1.3224160E-18
   71.09950       -1.3135409E-18
   71.26100       -1.3089270E-18
   71.42250       -1.3113868E-18
   71.58400       -1.3186824E-18
   71.74550       -1.3251697E-18
   71.90700       -1.3260215E-18
   72.06850       -1.3208745E-18
   72.23000       -1.3141366E-18
   72.39150       -1.3116495E-18
   72.55300       -1.3161768E-18
   72.71450       -1.3251573E-18
   72.87600       -1.3325226E-18
   73.03750       -1.3332979E-18
   73.19900       -1.3274998E-18
   73.36050       -1.3202674E-18
   73.52200       -1.3179942E-18
   73.68350       -1.3233792E-18
   73.84500       -1.3332365E-18
   74.00650       -1.3408411E-18
   74.16800       -1.3410706E-18
   74.32950       -1.3343999E-18
   74.49100       -1.3266080E-18
   74.65250       -1.3243711E-18
   74.81400       -1.3300822E-18
   74.97550       -1.3399208E-18
   75.13700       -1.3467012E-18
   75.29850       -1.3453760E-18
   75.46000       -1.3369693E-18
   75.62150       -1.3278966E-18
   75.78300       -1.3251392E-18
   75.94450       -1.3309185E-18
   76.10600       -1.3409342E-18
   76.26750       -1.3475438E-18
   76.42900       -1.3455360E-18
   76.59050       -1.3361397E-18
   76.75200       -1.3261785E-18
   76.91350       -1.3229592E-18
   77.07500       -1.3287135E-18
   77.23650       -1.3388617E-18
   77.39800       -1.3454672E-18
   77.55950       -1.3433262E-18
   77.72100       -1.3340520E-18
   77.88250       -1.3249668E-18
   78.04400       -1.3235653E-18
   78.20550       -1.3317207E-18
   78.36700       -1.3440974E-18
   78.52850       -1.3520894E-18
   78.69000       -1.3503413E-18
   78.85150       -1.3408556E-18
   79.01300       -1.3314625E-18
   79.17450       -1.3297773E-18
   79.33600       -1.3372765E-18
   79.49750       -1.3481075E-18
   79.65900       -1.3536039E-18
   79.82050       -1.3490726E-18
   79.98200       -1.3375806E-18
   80.14350       -1.3277597E-18
   80.30500       -1.3272357E-18
   80.46650       -1.3367345E-18
   80.62800       -1.3494542E-18
   80.78950       -1.3562250E-18
   80.95100       -1.3525206E-18
   81.11250       -1.3419197E-18
   81.27400       -1.3333222E-18
   81.43550       -1.3340504E-18
   81.59700       -1.3441170E-18
   81.75850       -1.3561004E-18
   81.92000       -1.3607637E-18
   82.08150       -1.3541588E-18
   82.24300       -1.3407615E-18
   82.40450       -1.3301882E-18
   82.56600       -1.3299386E-18
   82.72750       -1.3396856E-18
   82.88900       -1.3514925E-18
   83.05050       -1.3558448E-18
   83.21200       -1.3489439E-18
   83.37350       -1.3356927E-18
   83.53500       -1.3260384E-18
   83.69650       -1.3273882E-18
   83.85800       -1.3388789E-18
   84.01950       -1.3519500E-18
   84.18100       -1.3568609E-18
   84.34250       -1.3502056E-18
   84.50400       -1.3376141E-18
   84.66550       -1.3294928E-18
   84.82700       -1.3330045E-18
   84.98850       -1.3464695E-18
   85.15000       -1.3605422E-18
   85.31150       -1.3653295E-18
   85.47300       -1.3579852E-18
   85.63450       -1.3449014E-18
   85.79600       -1.3367512E-18
   85.95750       -1.3402149E-18
   86.11900       -1.3527988E-18
   86.28050       -1.3647803E-18
   86.44200       -1.3667620E-18
   86.60350       -1.3570039E-18
   86.76500       -1.3428547E-18
   86.92650       -1.3351794E-18
   87.08800       -1.3400453E-18
   87.24950       -1.3540554E-18
   87.41100       -1.3669052E-18
   87.57250       -1.3692239E-18
   87.73400       -1.3597160E-18
   87.89550       -1.3461378E-18
   88.05700       -1.3393585E-18
   88.21850       -1.3450143E-18
   88.38000       -1.3591145E-18
   88.54150       -1.3709962E-18
   88.70300       -1.3714418E-18
   88.86450       -1.3598048E-18
   89.02600       -1.3446581E-18
   89.18750       -1.3373616E-18
   89.34900       -1.3433841E-18
   89.51050       -1.3580397E-18
   89.67200       -1.3699813E-18
   89.83350       -1.3698738E-18
   89.99500       -1.3575922E-18
   90.15650       -1.3423691E-18
   90.31800       -1.3357144E-18
   90.47950       -1.3425181E-18
   90.64100       -1.3572413E-18
   90.80250       -1.3681797E-18
   90.96400       -1.3665370E-18
   91.12550       -1.3532742E-18
   91.28700       -1.3384227E-18
   91.44850       -1.3333919E-18
   91.61000       -1.3422292E-18
   91.77150       -1.3585762E-18
   91.93300       -1.3706206E-18
   92.09450       -1.3701918E-18
   92.25600       -1.3589904E-18
   92.41750       -1.3471815E-18
   92.57900       -1.3454746E-18
   92.74050       -1.3568015E-18
   92.90200       -1.3739805E-18
   93.06350       -1.3851594E-18
   93.22500       -1.3828431E-18
   93.38650       -1.3696146E-18
   93.54800       -1.3561506E-18
   93.70950       -1.3530485E-18
   93.87100       -1.3626948E-18
   94.03250       -1.3774031E-18
   94.19400       -1.3853052E-18
   94.35550       -1.3795155E-18
   94.51700       -1.3635540E-18
   94.67850       -1.3487907E-18
   94.84000       -1.3458049E-18
   95.00150       -1.3562577E-18
   95.16300       -1.3715593E-18
   95.32450       -1.3794289E-18
   95.48600       -1.3733675E-18
   95.64750       -1.3577449E-18
   95.80900       -1.3445269E-18
   95.97050       -1.3440869E-18
   96.13200       -1.3571732E-18
   96.29350       -1.3742443E-18
   96.45500       -1.3827483E-18
   96.61650       -1.3767391E-18
   96.77800       -1.3614126E-18
   96.93950       -1.3490472E-18
   97.10100       -1.3494969E-18
   97.26250       -1.3625752E-18
   97.42400       -1.3782028E-18
   97.58550       -1.3841834E-18
   97.74700       -1.3755901E-18
   97.90850       -1.3585506E-18
   98.07000       -1.3455524E-18
   98.23150       -1.3459219E-18
   98.39300       -1.3588089E-18
   98.55450       -1.3740045E-18
   98.71600       -1.3798948E-18
   98.87750       -1.3723952E-18
   99.03900       -1.3580450E-18
   99.20050       -1.3489297E-18
   99.36200       -1.3533502E-18
   99.52350       -1.3693890E-18
   99.68500       -1.3862887E-18
   99.84650       -1.3926072E-18
   100.0080       -1.3849128E-18
   100.1695       -1.3703665E-18
   100.3310       -1.3611844E-18
   100.4925       -1.3652043E-18
   100.6540       -1.3798152E-18
   100.8155       -1.3939458E-18
   100.9770       -1.3966314E-18
   101.1385       -1.3855603E-18
   101.3000       -1.3689524E-18
   101.4615       -1.3592367E-18
   101.6230       -1.3633984E-18
   101.7845       -1.3774966E-18
   101.9460       -1.3896618E-18
   102.1075       -1.3892820E-18
   102.2690       -1.3752514E-18
   102.4305       -1.3568663E-18
   102.5920       -1.3466981E-18
   102.7535       -1.3509751E-18
   102.9150       -1.3649157E-18
   103.0765       -1.3765913E-18
   103.2380       -1.3762549E-18
   103.3995       -1.3639077E-18
   103.5610       -1.3492793E-18
   103.7225       -1.3443055E-18
   103.8840       -1.3539377E-18
   104.0455       -1.3723260E-18
   104.2070       -1.3872450E-18
   104.3685       -1.3893326E-18
   104.5300       -1.3790844E-18
   104.6915       -1.3663119E-18
   104.8530       -1.3625249E-18
   105.0145       -1.3720778E-18
   105.1760       -1.3888388E-18
   105.3375       -1.4009081E-18
   105.4990       -1.3997606E-18
   105.6605       -1.3867963E-18
   105.8220       -1.3722648E-18
   105.9835       -1.3673662E-18
   106.1450       -1.3756173E-18
   106.3065       -1.3901354E-18
   106.4680       -1.3989844E-18
   106.6295       -1.3944559E-18
   106.7910       -1.3791024E-18
   106.9525       -1.3638028E-18
   107.1140       -1.3593795E-18
   107.2755       -1.3682775E-18
   107.4370       -1.3828003E-18
   107.5985       -1.3912323E-18
   107.7600       -1.3870346E-18
   107.9215       -1.3739137E-18
   108.0830       -1.3628425E-18
   108.2445       -1.3634104E-18
   108.4060       -1.3762801E-18
   108.5675       -1.3926179E-18
   108.7290       -1.4008792E-18
   108.8905       -1.3956387E-18
   109.0520       -1.3816286E-18
   109.2135       -1.3699532E-18
   109.3750       -1.3694832E-18
   109.5365       -1.3801076E-18
   109.6980       -1.3929801E-18
   109.8595       -1.3974880E-18
   110.0210       -1.3895303E-18
   110.1825       -1.3747367E-18
   110.3440       -1.3641911E-18
   110.5055       -1.3659543E-18
   110.6670       -1.3788965E-18
   110.8285       -1.3935643E-18
   110.9900       -1.3993925E-18
   111.1515       -1.3927505E-18
   111.3130       -1.3796367E-18
   111.4745       -1.3709826E-18
   111.6360       -1.3741703E-18
   111.7975       -1.3873100E-18
   111.9590       -1.4007200E-18
   112.1205       -1.4044407E-18
   112.2820       -1.3959571E-18
   112.4435       -1.3821125E-18
   112.6050       -1.3737526E-18
   112.7665       -1.3772928E-18
   112.9280       -1.3897778E-18
   113.0895       -1.4012577E-18
   113.2510       -1.4025569E-18
   113.4125       -1.3923504E-18
   113.5740       -1.3780638E-18
   113.7355       -1.3699994E-18
   113.8970       -1.3733508E-18
   114.0585       -1.3843507E-18
   114.2200       -1.3934366E-18
   114.3815       -1.3928269E-18
   114.5430       -1.3825539E-18
   114.7045       -1.3703319E-18
   114.8660       -1.3654870E-18
   115.0275       -1.3717477E-18
   115.1890       -1.3844557E-18
   115.3505       -1.3942619E-18
   115.5120       -1.3943575E-18
   115.6735       -1.3856148E-18
   115.8350       -1.3757499E-18
   115.9965       -1.3732253E-18
   116.1580       -1.3806660E-18
   116.3195       -1.3928514E-18
   116.4810       -1.4007904E-18
   116.6425       -1.3986994E-18
   116.8040       -1.3884826E-18
   116.9655       -1.3782416E-18
   117.1270       -1.3759798E-18
   117.2885       -1.3833933E-18
   117.4500       -1.3945852E-18
   117.6115       -1.4006886E-18
   117.7730       -1.3967801E-18
   117.9345       -1.3856854E-18
   118.0960       -1.3757369E-18
   118.2575       -1.3742755E-18
   118.4190       -1.3819925E-18
   118.5805       -1.3925122E-18
   118.7420       -1.3974783E-18