  -27.90000       -7.6830216E-19
  -27.73850       -7.6950658E-19
  -27.57700       -7.7122696E-19
  -27.41550       -7.7257821E-19
  -27.25400       -7.7307106E-19
  -27.09250       -7.7292092E-19
  -26.93100       -7.7286561E-19
  -26.76950       -7.7361788E-19
  -26.60800       -7.7533402E-19
  -26.44650       -7.7747952E-19
  -26.28500       -7.7918625E-19
  -26.12350       -7.7985306E-19
  -25.96200       -7.7957099E-19
  -25.80050       -7.7906140E-19
  -25.63900       -7.7917974E-19
  -25.47750       -7.8032042E-19
  -25.31600       -7.8215143E-19
  -25.15450       -7.8385506E-19
  -24.99300       -7.8471321E-19
  -24.83150       -7.8461628E-19
  -24.67000       -7.8413568E-19
  -24.50850       -7.8411500E-19
  -24.34700       -7.8506507E-19
  -24.18550       -7.8680329E-19
  -24.02400       -7.8858126E-19
  -23.86250       -7.8961395E-19
  -23.70100       -7.8963654E-19
  -23.53950       -7.8909050E-19
  -23.37800       -7.8881784E-19
  -23.21650       -7.8946666E-19
  -23.05500       -7.9103215E-19
  -22.89350       -7.9286130E-19
  -22.73200       -7.9410740E-19
  -22.57050       -7.9432701E-19
  -22.40900       -7.9379116E-19
  -22.24750       -7.9329485E-19
  -22.08600       -7.9359786E-19
  -21.92450       -7.9488247E-19
  -21.76300       -7.9662678E-19
  -21.60150       -7.9797483E-19
  -21.44000       -7.9834882E-19
  -21.27850       -7.9786807E-19
  -21.11700       -7.9727566E-19
  -20.95550       -7.9741927E-19
  -20.79400       -7.9865007E-19
  -20.63250       -8.0057181E-19
  -20.47100       -8.0230936E-19
  -20.30950       -8.0311266E-19
  -20.14800       -8.0287070E-19
  -19.98650       -8.0218120E-19
  -19.82500       -8.0192239E-19
  -19.66350       -8.0263532E-19
  -19.50200       -8.0414368E-19
  -19.34050       -8.0568617E-19
  -19.17900       -8.0645648E-19
  -19.01750       -8.0617932E-19
  -18.85600       -8.0532035E-19
  -18.69450       -8.0477668E-19
  -18.53300       -8.0526493E-19
  -18.37150       -8.0682158E-19
  -18.21000       -8.0877383E-19
  -18.04850       -8.1019580E-19
  -17.88700       -8.1054891E-19
  -17.72550       -8.1004893E-19
  -17.56400       -8.0950268E-19
  -17.40250       -8.0972700E-19
  -17.24100       -8.1095805E-19
  -17.07950       -8.1267248E-19
  -16.91800       -8.1395503E-19
  -16.75650       -8.1415505E-19
  -16.59500       -8.1336282E-19
  -16.43350       -8.1236648E-19
  -16.27200       -8.1210623E-19
  -16.11050       -8.1301949E-19
  -15.94900       -8.1474271E-19
  -15.78750       -8.1638198E-19
  -15.62600       -8.1715467E-19
  -15.46450       -8.1693908E-19
  -15.30300       -8.1634889E-19
  -15.14150       -8.1627703E-19
  -14.98000       -8.1724400E-19
  -14.81850       -8.1901308E-19
  -14.65700       -8.2074654E-19
  -14.49550       -8.2158489E-19
  -14.33400       -8.2124327E-19
  -14.17250       -8.2020557E-19
  -14.01100       -8.1938283E-19
  -13.84950       -8.1947258E-19
  -13.68800       -8.2047683E-19
  -13.52650       -8.2170638E-19
  -13.36500       -8.2227812E-19
  -13.20350       -8.2175441E-19
  -13.04200       -8.2047476E-19
  -12.88050       -8.1933501E-19
  -12.71900       -8.1917350E-19
  -12.55750       -8.2018680E-19
  -12.39600       -8.2179965E-19
  -12.23450       -8.2307940E-19
  -12.07300       -8.2341069E-19
  -11.91150       -8.2294410E-19
  -11.75000       -8.2249494E-19
  -11.58850       -8.2296023E-19
  -11.42700       -8.2466779E-19
  -11.26550       -8.2712504E-19
  -11.10400       -8.2934271E-19
  -10.94250       -8.3050981E-19
  -10.78100       -8.3053354E-19
  -10.61950       -8.3006923E-19
  -10.45800       -8.3002591E-19
  -10.29650       -8.3090091E-19
  -10.13500       -8.3242168E-19
  -9.973500       -8.3374501E-19
  -9.812000       -8.3406291E-19
  -9.650500       -8.3318579E-19
  -9.489000       -8.3169764E-19
  -9.327500       -8.3057030E-19
  -9.166000       -8.3051637E-19
  -9.004500       -8.3152486E-19
  -8.843000       -8.3290129E-19
  -8.681500       -8.3377557E-19
  -8.520000       -8.3371431E-19
  -8.358500       -8.3301265E-19
  -8.197000       -8.3246526E-19
  -8.035500       -8.3278678E-19
  -7.874000       -8.3409036E-19
  -7.712500       -8.3579167E-19
  -7.551000       -8.3700488E-19
  -7.389500       -8.3715434E-19
  -7.228000       -8.3637385E-19
  -7.066500       -8.3541189E-19
  -6.905000       -8.3510960E-19
  -6.743500       -8.3582398E-19
  -6.582000       -8.3719482E-19
  -6.420500       -8.3841869E-19
  -6.259000       -8.3883104E-19
  -6.097500       -8.3837516E-19
  -5.936000       -8.3763711E-19
  -5.774500       -8.3741325E-19
  -5.613000       -8.3812964E-19
  -5.451500       -8.3952349E-19
  -5.290000       -8.4081208E-19
  -5.128500       -8.4123400E-19
  -4.967000       -8.4057355E-19
  -4.805500       -8.3930936E-19
  -4.644000       -8.3827502E-19
  -4.482500       -8.3808466E-19
  -4.321000       -8.3872438E-19
  -4.159500       -8.3958780E-19
  -3.998000       -8.3992783E-19
  -3.836500       -8.3940288E-19
  -3.675000       -8.3833432E-19
  -3.513500       -8.3749778E-19
  -3.352000       -8.3759725E-19
  -3.190500       -8.3878632E-19
  -3.029000       -8.4057220E-19
  -2.867500       -8.4215858E-19
  -2.706000       -8.4298984E-19
  -2.544500       -8.4311894E-19
  -2.383000       -8.4315218E-19
  -2.221500       -8.4381098E-19
  -2.060000       -8.4542005E-19
  -1.898500       -8.4766326E-19
  -1.737000       -8.4978219E-19
  -1.575500       -8.5107486E-19
  -1.414000       -8.5135093E-19
  -1.252500       -8.5103666E-19
  -1.091000       -8.5086295E-19
 -0.9295000       -8.5135688E-19
 -0.7680000       -8.5248645E-19
 -0.6065000       -8.5369051E-19
 -0.4450000       -8.5427957E-19
 -0.2835000       -8.5392677E-19
 -0.1220000       -8.5291477E-19
  3.9500002E-02   -8.5196165E-19
  0.2010000       -8.5174400E-19
  0.3625000       -8.5244266E-19
  0.5240000       -8.5362010E-19
  0.6855000       -8.5452312E-19
  0.8470000       -8.5459007E-19
   1.008500       -8.5382152E-19
   1.170000       -8.5275151E-19
   1.331500       -8.5204685E-19
   1.493000       -8.5201180E-19
   1.654500       -8.5236144E-19
   1.816000       -8.5241562E-19
   1.977500       -8.5158472E-19
   2.139000       -8.4979878E-19
   2.300500       -8.4758814E-19
   2.462000       -8.4575573E-19
   2.623500       -8.4487354E-19
   2.785000       -8.4493920E-19
   2.946500       -8.4543168E-19
   3.108000       -8.4571385E-19
   3.269500       -8.4550882E-19
   3.431000       -8.4511704E-19
   3.592500       -8.4522520E-19
   3.754000       -8.4643200E-19
   3.915500       -8.4880952E-19
   4.077000       -8.5181147E-19
   4.238500       -8.5459178E-19
   4.400000       -8.5654020E-19
   4.561500       -8.5765757E-19
   4.723000       -8.5852016E-19
   4.884500       -8.5983786E-19
   5.046000       -8.6191651E-19
   5.207500       -8.6439035E-19
   5.369000       -8.6643514E-19
   5.530500       -8.6731640E-19
   5.692000       -8.6689790E-19
   5.853500       -8.6574729E-19
   6.015000       -8.6475912E-19
   6.176500       -8.6455315E-19
   6.338000       -8.6507174E-19
   6.499500       -8.6565165E-19
   6.661000       -8.6552276E-19
   6.822500       -8.6438839E-19
   6.984000       -8.6267922E-19
   7.145500       -8.6129592E-19
   7.307000       -8.6102750E-19
   7.468500       -8.6202606E-19
   7.630000       -8.6371113E-19
   7.791500       -8.6516361E-19
   7.953000       -8.6575117E-19
   8.114500       -8.6555037E-19
   8.276000       -8.6526990E-19
   8.437500       -8.6572769E-19
   8.599000       -8.6723461E-19
   8.760500       -8.6933167E-19
   8.922000       -8.7106513E-19
   9.083500       -8.7162368E-19
   9.245000       -8.7089452E-19
   9.406500       -8.6953857E-19
   9.568000       -8.6853054E-19
   9.729500       -8.6848009E-19
   9.891000       -8.6921276E-19
   10.05250       -8.6990232E-19
   10.21400       -8.6967422E-19
   10.37550       -8.6823669E-19
   10.53700       -8.6610871E-19
   10.69850       -8.6427677E-19
   10.86000       -8.6352600E-19
   11.02150       -8.6390231E-19
   11.18300       -8.6469144E-19
   11.34450       -8.6492559E-19
   11.50600       -8.6407788E-19
   11.66750       -8.6246080E-19
   11.82900       -8.6104213E-19
   11.99050       -8.6079821E-19
   12.15200       -8.6204136E-19
   12.31350       -8.6419477E-19
   12.47500       -8.6618120E-19
   12.63650       -8.6716937E-19
   12.79800       -8.6714362E-19
   12.95950       -8.6690265E-19
   13.12100       -8.6746007E-19
   13.28250       -8.6927676E-19
   13.44400       -8.7187235E-19
   13.60550       -8.7410533E-19
   13.76700       -8.7493726E-19
   13.92850       -8.7414255E-19
   14.09000       -8.7246100E-19
   14.25150       -8.7108043E-19
   14.41300       -8.7081377E-19
   14.57450       -8.7155234E-19
   14.73600       -8.7237321E-19
   14.89750       -8.7223290E-19
   15.05900       -8.7074749E-19
   15.22050       -8.6851328E-19
   15.38200       -8.6674471E-19
   15.54350       -8.6646678E-19
   15.70500       -8.6782827E-19
   15.86650       -8.7001016E-19
   16.02800       -8.7179336E-19
   16.18950       -8.7240299E-19
   16.35100       -8.7204710E-19
   16.51250       -8.7176627E-19
   16.67400       -8.7269478E-19
   16.83550       -8.7522802E-19
   16.99700       -8.7869318E-19
   17.15850       -8.8175944E-19
   17.32000       -8.8332581E-19
   17.48150       -8.8326315E-19
   17.64300       -8.8248787E-19
   17.80450       -8.8229876E-19
   17.96600       -8.8344161E-19
   18.12750       -8.8555775E-19
   18.28900       -8.8742469E-19
   18.45050       -8.8782288E-19
   18.61200       -8.8642318E-19
   18.77350       -8.8405342E-19
   18.93500       -8.8214749E-19
   19.09650       -8.8176802E-19
   19.25800       -8.8288595E-19
   19.41950       -8.8442978E-19
   19.58100       -8.8507312E-19
   19.74250       -8.8419197E-19
   19.90400       -8.8231665E-19
   20.06550       -8.8076630E-19
   20.22700       -8.8072484E-19
   20.38850       -8.8240919E-19
   20.55000       -8.8491006E-19
   20.71150       -8.8681382E-19
   20.87300       -8.8717354E-19
   21.03450       -8.8615704E-19
   21.19600       -8.8492196E-19
   21.35750       -8.8479643E-19
   21.51900       -8.8633209E-19
   21.68050       -8.8888312E-19
   21.84200       -8.9101435E-19
   22.00350       -8.9147643E-19
   22.16500       -8.9007250E-19
   22.32650       -8.8780964E-19
   22.48800       -8.8620212E-19
   22.64950       -8.8620243E-19
   22.81100       -8.8750741E-19
   22.97250       -8.8875408E-19
   23.13400       -8.8848845E-19
   23.29550       -8.8622973E-19
   23.45700       -8.8286745E-19
   23.61850       -8.8008636E-19
   23.78000       -8.7921865E-19
   23.94150       -8.8032862E-19
   24.10300       -8.8218998E-19
   24.26450       -8.8317784E-19
   24.42600       -8.8244827E-19
   24.58750       -8.8056685E-19
   24.74900       -8.7913014E-19
   24.91050       -8.7964878E-19
   25.07200       -8.8247712E-19
   25.23350       -8.8654126E-19
   25.39500       -8.9005337E-19
   25.55650       -8.9171590E-19
   25.71800       -8.9157704E-19
   25.87950       -8.9095158E-19
   26.04100       -8.9145534E-19
   26.20250       -8.9383100E-19
   26.36400       -8.9738281E-19
   26.52550       -9.0041639E-19
   26.68700       -9.0139639E-19
   26.84850       -9.0000901E-19
   27.01000       -8.9740060E-19
   27.17150       -8.9541288E-19
   27.33300       -8.9533792E-19
   27.49450       -8.9705421E-19
   27.65600       -8.9913881E-19
   27.81750       -8.9988979E-19
   27.97900       -8.9855368E-19
   28.14050       -8.9589461E-19
   28.30200       -8.9369172E-19
   28.46350       -8.9349878E-19
   28.62500       -8.9553044E-19
   28.78650       -8.9846797E-19
   28.94800       -9.0034029E-19
   29.10950       -8.9988203E-19
   29.27100       -8.9742510E-19
   29.43250       -8.9468155E-19
   29.59400       -8.9353952E-19
   29.75550       -8.9471681E-19
   29.91700       -8.9722709E-19
   30.07850       -8.9907243E-19
   30.24000       -8.9868593E-19
   30.40150       -8.9609985E-19
   30.56300       -8.9298438E-19
   30.72450       -8.9150156E-19
   30.88600       -8.9278286E-19
   31.04750       -8.9611226E-19
   31.20900       -8.9941850E-19
   31.37050       -9.0074023E-19
   31.53200       -8.9962623E-19
   31.69350       -8.9746563E-19
   31.85500       -8.9650083E-19
   32.01650       -8.9821682E-19
   32.17800       -9.0225573E-19
   32.33950       -9.0662004E-19
   32.50100       -9.0903448E-19
   32.66250       -9.0851542E-19
   32.82400       -9.0605084E-19
   32.98550       -9.0391226E-19
   33.14700       -9.0406550E-19
   33.30850       -9.0678000E-19
   33.47000       -9.1041845E-19
   33.63150       -9.1255816E-19
   33.79300       -9.1169531E-19
   33.95450       -9.0834264E-19
   34.11600       -9.0472735E-19
   34.27750       -9.0327244E-19
   34.43900       -9.0490312E-19
   34.60050       -9.0836591E-19
   34.76200       -9.1106934E-19
   34.92350       -9.1089212E-19
   35.08500       -9.0768917E-19
   35.24650       -9.0342423E-19
   35.40800       -9.0080020E-19
   35.56950       -9.0134025E-19
   35.73100       -9.0429080E-19
   35.89250       -9.0714778E-19
   36.05400       -9.0745735E-19
   36.21550       -9.0461320E-19
   36.37700       -9.0034991E-19
   36.53850       -8.9756593E-19
   36.70000       -8.9829591E-19
   36.86150       -9.0227124E-19
   37.02300       -9.0710528E-19
   37.18450       -9.0998284E-19
   37.34600       -9.0965724E-19
   37.50750       -9.0732842E-19
   37.66900       -9.0576556E-19
   37.83050       -9.0729192E-19
   37.99200       -9.1207633E-19
   38.15350       -9.1794818E-19
   38.31500       -9.2189362E-19
   38.47650       -9.2217372E-19
   38.63800       -9.1955487E-19
   38.79950       -9.1677068E-19
   38.96100       -9.1656906E-19
   39.12250       -9.1972124E-19
   39.28400       -9.2442324E-19
   39.44550       -9.2754295E-19
   39.60700       -9.2684212E-19
   39.76850       -9.2260748E-19
   39.93000       -9.1749974E-19
   40.09150       -9.1470521E-19
   40.25300       -9.1568718E-19
   40.41450       -9.1913766E-19
   40.57600       -9.2190313E-19
   40.73750       -9.2125080E-19
   40.89900       -9.1687491E-19
   41.06050       -9.1118701E-19
   41.22200       -9.0765577E-19
   41.38350       -9.0834668E-19
   41.54500       -9.1242044E-19
   41.70650       -9.1668218E-19
   41.86800       -9.1782265E-19
   42.02950       -9.1477480E-19
   42.19100       -9.0950483E-19
   42.35250       -9.0566113E-19
   42.51400       -9.0601392E-19
   42.67550       -9.1049890E-19
   42.83700       -9.1625969E-19
   42.99850       -9.1968039E-19
   43.16000       -9.1897109E-19
   43.32150       -9.1545712E-19
   43.48300       -9.1264378E-19
   43.64450       -9.1370102E-19
   43.80600       -9.1916547E-19
   43.96750       -9.2649430E-19
   44.12900       -9.3179818E-19
   44.29050       -9.3254326E-19
   44.45200       -9.2929916E-19
   44.61350       -9.2530088E-19
   44.77500       -9.2412122E-19
   44.93650       -9.2711871E-19
   45.09800       -9.3247233E-19
   45.25950       -9.3649760E-19
   45.42100       -9.3630000E-19
   45.58250       -9.3188193E-19
   45.74400       -9.2618907E-19
   45.90550       -9.2305901E-19
   46.06700       -9.2451072E-19
   46.22850       -9.2930474E-19
   46.39000       -9.3380533E-19
   46.55150       -9.3456654E-19
   46.71300       -9.3081238E-19
   46.87450       -9.2502801E-19
   47.03600       -9.2121564E-19
   47.19750       -9.2202493E-19
   47.35900       -9.2681369E-19
   47.52050       -9.3204375E-19
   47.68200       -9.3376935E-19
   47.84350       -9.3046735E-19
   48.00500       -9.2416599E-19
   48.16650       -9.1903881E-19
   48.32800       -9.1843042E-19
   48.48950       -9.2243749E-19
   48.65100       -9.2780631E-19
   48.81250       -9.3025187E-19
   48.97400       -9.2755154E-19
   49.13550       -9.2119445E-19
   49.29700       -9.1538588E-19
   49.45850       -9.1410758E-19
   49.62000       -9.1831431E-19
   49.78150       -9.2526479E-19
   49.94300       -9.3045783E-19
   50.10450       -9.3080463E-19
   50.26600       -9.2678732E-19
   50.42750       -9.2208408E-19
   50.58900       -9.2092975E-19
   50.75050       -9.2508499E-19
   50.91200       -9.3256053E-19
   51.07350       -9.3898245E-19
   51.23500       -9.4064353E-19
   51.39650       -9.3709854E-19
   51.55800       -9.3148157E-19
   51.71950       -9.2831492E-19
   51.88100       -9.3034275E-19
   52.04250       -9.3660368E-19
   52.20400       -9.4311008E-19
   52.36550       -9.4566534E-19
   52.52700       -9.4283835E-19
   52.68850       -9.3698108E-19
   52.85000       -9.3255174E-19
   53.01150       -9.3291870E-19
   53.17300       -9.3791518E-19
   53.33450       -9.4390862E-19
   53.49600       -9.4636638E-19
   53.65750       -9.4310026E-19
   53.81900       -9.3587028E-19
   53.98050       -9.2916247E-19
   54.14200       -9.2700405E-19
   54.30350       -9.3008860E-19
   54.46500       -9.3529260E-19
   54.62650       -9.3794992E-19
   54.78800       -9.3525827E-19
   54.94950       -9.2837024E-19
   55.11100       -9.2165126E-19
   55.27250       -9.1961846E-19
   55.43400       -9.2373927E-19
   55.59550       -9.3138386E-19
   55.75700       -9.3768274E-19
   55.91850       -9.3897531E-19
   56.08000       -9.3540086E-19
   56.24150       -9.3078188E-19
   56.40300       -9.2987374E-19
   56.56450       -9.3492781E-19
   56.72600       -9.4399775E-19
   56.88750       -9.5220472E-19
   57.04900       -9.5509396E-19
   57.21050       -9.5173271E-19
   57.37200       -9.4537087E-19
   57.53350       -9.4117013E-19
   57.69500       -9.4258223E-19
   57.85650       -9.4891275E-19
   58.01800       -9.5580306E-19
   58.17950       -9.5831769E-19
   58.34100       -9.5447440E-19
   58.50250       -9.4671648E-19
   58.66400       -9.4025517E-19
   58.82550       -9.3942458E-19
   58.98700       -9.4460562E-19
   59.14850       -9.5192545E-19
   59.31000       -9.5596974E-19
   59.47150       -9.5361414E-19
   59.63300       -9.4625264E-19
   59.79450       -9.3882218E-19
   59.95600       -9.3629142E-19
   60.11750       -9.4010535E-19
   60.27900       -9.4713566E-19
   60.44050       -9.5190270E-19
   60.60200       -9.5049401E-19
   60.76350       -9.4338760E-19
   60.92500       -9.3514950E-19
   61.08650       -9.3120840E-19
   61.24800       -9.3401068E-19
   61.40950       -9.4129483E-19
   61.57100       -9.4772254E-19
   61.73250       -9.4872105E-19
   61.89400       -9.4377782E-19
   62.05550       -9.3684357E-19
   62.21700       -9.3354570E-19
   62.37850       -9.3717382E-19
   62.54000       -9.4629204E-19
   62.70150       -9.5568198E-19
   62.86300       -9.5996264E-19
   63.02450       -9.5734007E-19
   63.18600       -9.5083719E-19
   63.34750       -9.4611512E-19
   63.50900       -9.4741493E-19
   63.67050       -9.5448288E-19
   63.83200       -9.6268169E-19
   63.99350       -9.6624363E-19
   64.15500       -9.6238990E-19
   64.31650       -9.5339659E-19
   64.47800       -9.4509666E-19
   64.63950       -9.4283556E-19
   64.80100       -9.4771086E-19
   64.96250       -9.5578269E-19
   65.12400       -9.6084783E-19
   65.28550       -9.5884099E-19
   65.44700       -9.5075416E-19
   65.60850       -9.4195833E-19
   65.77000       -9.3839494E-19
   65.93150       -9.4233625E-19
   66.09300       -9.5074982E-19
   66.25450       -9.5745639E-19
   66.41600       -9.5755503E-19
   66.57750       -9.5096085E-19
   66.73900       -9.4251575E-19
   66.90050       -9.3858602E-19
   67.06200       -9.4255556E-19
   67.22350       -9.5242320E-19
   67.38500       -9.6220285E-19
   67.54650       -9.6613165E-19
   67.70800       -9.6269131E-19
   67.86950       -9.5560257E-19
   68.03100       -9.5110178E-19
   68.19250       -9.5344684E-19
   68.35400       -9.6183900E-19
   68.51550       -9.7093302E-19
   68.67700       -9.7458751E-19
   68.83850       -9.7021079E-19
   69.00000       -9.6063659E-19
   69.16150       -9.5217577E-19
   69.32300       -9.5020088E-19
   69.48450       -9.5535856E-19
   69.64600       -9.6310365E-19
   69.80750       -9.6691716E-19
   69.96900       -9.6295445E-19
   70.13050       -9.5284103E-19
   70.29200       -9.4260095E-19
   70.45350       -9.3843403E-19
   70.61500       -9.4232808E-19
   70.77650       -9.5063722E-19
   70.93800       -9.5668794E-19
   71.09950       -9.5558076E-19
   71.26100       -9.4777238E-19
   71.42250       -9.3883914E-19
   71.58400       -9.3556175E-19
   71.74550       -9.4109496E-19
   71.90700       -9.5267529E-19
   72.06850       -9.6351404E-19
   72.23000       -9.6754706E-19
   72.39150       -9.6367544E-19
   72.55300       -9.5647235E-19
   72.71450       -9.5285695E-19
   72.87600       -9.5710112E-19
   73.03750       -9.6772460E-19
   73.19900       -9.7849294E-19
   73.36050       -9.8280968E-19
   73.52200       -9.7838985E-19
   73.68350       -9.6889681E-19
   73.84500       -9.6137981E-19
   74.00650       -9.6131053E-19
   74.16800       -9.6871918E-19
   74.32950       -9.7817313E-19
   74.49100       -9.8261447E-19
   74.65250       -9.7836741E-19
   74.81400       -9.6777433E-19
   74.97550       -9.5758202E-19
   75.13700       -9.5419854E-19
   75.29850       -9.5916286E-19
   75.46000       -9.6804451E-19
   75.62150       -9.7359696E-19
   75.78300       -9.7094388E-19
   75.94450       -9.6113279E-19
   76.10600       -9.5049308E-19
   76.26750       -9.4620032E-19
   76.42900       -9.5118212E-19
   76.59050       -9.6198500E-19
   76.75200       -9.7117032E-19
   76.91350       -9.7255957E-19
   77.07500       -9.6561167E-19
   77.23650       -9.5579727E-19
   77.39800       -9.5068757E-19
   77.55950       -9.5453510E-19
   77.72100       -9.6520438E-19
   77.88250       -9.7565250E-19
   78.04400       -9.7890797E-19
   78.20550       -9.7301369E-19
   78.36700       -9.6242950E-19
   78.52850       -9.5488851E-19
   78.69000       -9.5593634E-19
   78.85150       -9.6500834E-19
   79.01300       -9.7581618E-19
   79.17450       -9.8077782E-19
   79.33600       -9.7636987E-19
   79.49750       -9.6563565E-19
   79.65900       -9.5606704E-19
   79.82050       -9.5434671E-19
   79.98200       -9.6164079E-19
   80.14350       -9.7276833E-19
   80.30500       -9.7985965E-19
   80.46650       -9.7793552E-19
   80.62800       -9.6846172E-19
   80.78950       -9.5834209E-19
   80.95100       -9.5503554E-19
   81.11250       -9.6123733E-19
   81.27400       -9.7291060E-19
   81.43550       -9.8208993E-19
   81.59700       -9.8250269E-19
   81.75850       -9.7402337E-19
   81.92000       -9.6279326E-19
   82.08150       -9.5689504E-19
   82.24300       -9.6063028E-19
   82.40450       -9.7146635E-19
   82.56600       -9.8183423E-19
   82.72750       -9.8451460E-19
   82.88900       -9.7779128E-19
   83.05050       -9.6670623E-19
   83.21200       -9.5950108E-19
   83.37350       -9.6175246E-19
   83.53500       -9.7235453E-19
   83.69650       -9.8422499E-19
   83.85800       -9.8926428E-19
   84.01950       -9.8407878E-19
   84.18100       -9.7241481E-19
   84.34250       -9.6253735E-19
   84.50400       -9.6139336E-19
   84.66550       -9.6967922E-19
   84.82700       -9.8132841E-19
   84.98850       -9.8780782E-19
   85.15000       -9.8420565E-19
   85.31150       -9.7278115E-19
   85.47300       -9.6143978E-19
   85.63450       -9.5816508E-19
   85.79600       -9.6534201E-19
   85.95750       -9.7800997E-19
   86.11900       -9.8732764E-19
   86.28050       -9.8681851E-19
   86.44200       -9.7698261E-19
   86.60350       -9.6497960E-19
   86.76500       -9.5957769E-19
   86.92650       -9.6493255E-19
   87.08800       -9.7760268E-19
   87.24950       -9.8894840E-19
   87.41100       -9.9124113E-19
   87.57250       -9.8316351E-19
   87.73400       -9.7076841E-19
   87.89550       -9.6319909E-19
   88.05700       -9.6616939E-19
   88.21850       -9.7785683E-19
   88.38000       -9.9013747E-19
   88.54150       -9.9433055E-19
   88.70300       -9.8737355E-19
   88.86450       -9.7404550E-19
   89.02600       -9.6361299E-19
   89.18750       -9.6326713E-19
   89.34900       -9.7300614E-19
   89.51050       -9.8562489E-19
   89.67200       -9.9184415E-19
   89.83350       -9.8693752E-19
   89.99500       -9.7412997E-19
   90.15650       -9.6232735E-19
   90.31800       -9.5977012E-19
   90.47950       -9.6813240E-19
   90.64100       -9.8128757E-19
   90.80250       -9.8964726E-19
   90.96400       -9.8700959E-19
   91.12550       -9.7503160E-19
   91.28700       -9.6210825E-19
   91.44850       -9.5742940E-19
   91.61000       -9.6442859E-19
   91.77150       -9.7830413E-19
   91.93300       -9.8941431E-19
   92.09450       -9.9014553E-19
   92.25600       -9.8036102E-19
   92.41750       -9.6752142E-19
   92.57900       -9.6136461E-19
   92.74050       -9.6692368E-19
   92.90200       -9.8088008E-19
   93.06350       -9.9389039E-19
   93.22500       -9.9725774E-19
   93.38650       -9.8917939E-19
   93.54800       -9.7609163E-19
   93.70950       -9.6811254E-19
   93.87100       -9.7183289E-19
   94.03250       -9.8558405E-19
   94.19400       -1.0005928E-18
   94.35550       -1.0071956E-18
   94.51700       -1.0016917E-18
   94.67850       -9.8894540E-19
   94.84000       -9.7886548E-19
   95.00150       -9.7928703E-19
   95.16300       -9.9033444E-19
   95.32450       -1.0043007E-18
   95.48600       -1.0111296E-18
   95.64750       -1.0055941E-18
   95.80900       -9.9104819E-19
   95.97050       -9.7707432E-19
   96.13200       -9.7269151E-19
   96.29350       -9.7996914E-19
   96.45500       -9.9259182E-19
   96.61650       -1.0004060E-18
   96.77800       -9.9670973E-19
   96.93950       -9.8307624E-19
   97.10100       -9.6825347E-19
   97.26250       -9.6194074E-19
   97.42400       -9.6787628E-19
   97.58550       -9.8120113E-19
   97.74700       -9.9197050E-19
   97.90850       -9.9230416E-19
   98.07000       -9.8204020E-19
   98.23150       -9.6883757E-19
   98.39300       -9.6265842E-19
   98.55450       -9.6859407E-19
   98.71600       -9.8318243E-19
   98.87750       -9.9687227E-19
   99.03900       -1.0008273E-18
   99.20050       -9.9319452E-19
   99.36200       -9.8033600E-19
   99.52350       -9.7217793E-19
   99.68500       -9.7504339E-19
   99.84650       -9.8711691E-19
   100.0080       -9.9978539E-19
   100.1695       -1.0038563E-18
   100.3310       -9.9617785E-19
   100.4925       -9.8190919E-19
   100.6540       -9.7083934E-19
   100.8155       -9.7041634E-19
   100.9770       -9.8047693E-19
   101.1385       -9.9342882E-19
   101.3000       -9.9972139E-19
   101.4615       -9.9468024E-19
   101.6230       -9.8182606E-19
   101.7845       -9.7033683E-19
   101.9460       -9.6848912E-19
   102.1075       -9.7776967E-19
   102.2690       -9.9186173E-19
   102.4305       -1.0012003E-18
   102.5920       -9.9981869E-19
   102.7535       -9.8958005E-19
   102.9150       -9.7878255E-19
   103.0765       -9.7616587E-19
   103.2380       -9.8462710E-19
   103.3995       -9.9914278E-19
   103.5610       -1.0103670E-18
   103.7225       -1.0112881E-18
   103.8840       -1.0021688E-18
   104.0455       -9.9025679E-19
   104.2070       -9.8451895E-19
   104.3685       -9.8922529E-19
   104.5300       -1.0009688E-18
   104.6915       -1.0111978E-18
   104.8530       -1.0123732E-18
   105.0145       -1.0033200E-18
   105.1760       -9.8996955E-19
   105.3375       -9.8104830E-19
   105.4990       -9.8184943E-19
   105.6605       -9.9054744E-19
   105.8220       -9.9963071E-19
   105.9835       -1.0013626E-18
   106.1450       -9.9333886E-19
   106.3065       -9.8019817E-19
   106.4680       -9.7032329E-19
   106.6295       -9.6993296E-19
   106.7910       -9.7876704E-19
   106.9525       -9.9039586E-19
   107.1140       -9.9687206E-19
   107.2755       -9.9437377E-19
   107.4370       -9.8582238E-19
   107.5985       -9.7865310E-19
   107.7600       -9.7936995E-19
   107.9215       -9.8880788E-19
   108.0830       -1.0014733E-18
   108.2445       -1.0094204E-18
   108.4060       -1.0078600E-18
   108.5675       -9.9851040E-19
   108.7290       -9.8832284E-19
   108.8905       -9.8452650E-19
   109.0520       -9.8956144E-19
   109.2135       -9.9948781E-19
   109.3750       -1.0069574E-18
   109.5365       -1.0065599E-18
   109.6980       -9.9869269E-19
   109.8595       -9.8922292E-19
   110.0210       -9.8523932E-19
   110.1825       -9.8998558E-19
   110.3440       -1.0005729E-18
   110.5055       -1.0100605E-18
   110.6670       -1.0123547E-18
   110.8285       -1.0064274E-18
   110.9900       -9.9689750E-19
   111.1515       -9.9063491E-19
   111.3130       -9.9187165E-19
   111.4745       -9.9927988E-19
   111.6360       -1.0070304E-18
   111.7975       -1.0090062E-18
   111.9590       -1.0031478E-18
   112.1205       -9.9288247E-19
   112.2820       -9.8467373E-19
   112.4435       -9.8347804E-19
   112.6050       -9.8931908E-19
   112.7665       -9.9737364E-19
   112.9280       -1.0014641E-18
   113.0895       -9.9845611E-19
   113.2510       -9.9044539E-19
   113.4125       -9.8321242E-19
   113.5740       -9.8207639E-19
   113.7355       -9.8810384E-19
   113.8970       -9.9736775E-19
   114.0585       -1.0037482E-18
   114.2200       -1.0032535E-18
   114.3815       -9.9676608E-19
   114.5430       -9.8929271E-19
   114.7045       -9.8629718E-19
   114.8660       -9.8979398E-19
   115.0275       -9.9697898E-19
   115.1890       -1.0023403E-18
   115.3505       -1.0016643E-18
   115.5120       -9.9506323E-19
   115.6735       -9.8689234E-19
   115.8350       -9.8267227E-19
   115.9965       -9.8524438E-19
   116.1580       -9.9287295E-19
   116.3195       -1.0005737E-18
   116.4810       -1.0036611E-18
   116.6425       -1.0009803E-18
   116.8040       -9.9557153E-19
   116.9655       -9.9237034E-19
   117.1270       -9.9461603E-19
   117.2885       -1.0015289E-18
   117.4500       -1.0088714E-18
   117.6115       -1.0119701E-18
   117.7730       -1.0090272E-18
   117.9345       -1.0023845E-18
   118.0960       -9.9684994E-19
   118.2575       -9.9629438E-19
   118.4190       -1.0009480E-18
   118.5805       -1.0073066E-18
   118.7420       -1.0106854E-18