  -27.90000        9.6920868E-18
  -27.73850        9.7217553E-18
  -27.57700        9.7640002E-18
  -27.41550        9.7969477E-18
  -27.25400        9.8086746E-18
  -27.09250        9.8047836E-18
  -26.93100        9.8035899E-18
  -26.76950        9.8224257E-18
  -26.60800        9.8647616E-18
  -26.44650        9.9172297E-18
  -26.28500        9.9586640E-18
  -26.12350        9.9747568E-18
  -25.96200        9.9680459E-18
  -25.80050        9.9561841E-18
  -25.63900        9.9597112E-18
  -25.47750        9.9878916E-18
  -25.31600        1.0032516E-17
  -25.15450        1.0073946E-17
  -24.99300        1.0095083E-17
  -24.83150        1.0093402E-17
  -24.67000        1.0082612E-17
  -24.50850        1.0082839E-17
  -24.34700        1.0106298E-17
  -24.18550        1.0148613E-17
  -24.02400        1.0191894E-17
  -23.86250        1.0217384E-17
  -23.70100        1.0218730E-17
  -23.53950        1.0206497E-17
  -23.37800        1.0200742E-17
  -23.21650        1.0216856E-17
  -23.05500        1.0254714E-17
  -22.89350        1.0298734E-17
  -22.73200        1.0328844E-17
  -22.57050        1.0334584E-17
  -22.40900        1.0322435E-17
  -22.24750        1.0311186E-17
  -22.08600        1.0318655E-17
  -21.92450        1.0349126E-17
  -21.76300        1.0390385E-17
  -21.60150        1.0422458E-17
  -21.44000        1.0431868E-17
  -21.27850        1.0421353E-17
  -21.11700        1.0408149E-17
  -20.95550        1.0411978E-17
  -20.79400        1.0441169E-17
  -20.63250        1.0486657E-17
  -20.47100        1.0528108E-17
  -20.30950        1.0547921E-17
  -20.14800        1.0543314E-17
  -19.98650        1.0528036E-17
  -19.82500        1.0522536E-17
  -19.66350        1.0539520E-17
  -19.50200        1.0575047E-17
  -19.34050        1.0611424E-17
  -19.17900        1.0629871E-17
  -19.01750        1.0624008E-17
  -18.85600        1.0604690E-17
  -18.69450        1.0592719E-17
  -18.53300        1.0604516E-17
  -18.37150        1.0640779E-17
  -18.21000        1.0686021E-17
  -18.04850        1.0719295E-17
  -17.88700        1.0728566E-17
  -17.72550        1.0718703E-17
  -17.56400        1.0707573E-17
  -17.40250        1.0713088E-17
  -17.24100        1.0740393E-17
  -17.07950        1.0778204E-17
  -16.91800        1.0806848E-17
  -16.75650        1.0812290E-17
  -16.59500        1.0796276E-17
  -16.43350        1.0775434E-17
  -16.27200        1.0769971E-17
  -16.11050        1.0789894E-17
  -15.94900        1.0828371E-17
  -15.78750        1.0866808E-17
  -15.62600        1.0888015E-17
  -15.46450        1.0888134E-17
  -15.30300        1.0878985E-17
  -15.14150        1.0879237E-17
  -14.98000        1.0900719E-17
  -14.81850        1.0939593E-17
  -14.65700        1.0978666E-17
  -14.49550        1.0999228E-17
  -14.33400        1.0994082E-17
  -14.17250        1.0972569E-17
  -14.01100        1.0954057E-17
  -13.84950        1.0954456E-17
  -13.68800        1.0975272E-17
  -13.52650        1.1002881E-17
  -13.36500        1.1018512E-17
  -13.20350        1.1011867E-17
  -13.04200        1.0988740E-17
  -12.88050        1.0967251E-17
  -12.71900        1.0965331E-17
  -12.55750        1.0988274E-17
  -12.39600        1.1025136E-17
  -12.23450        1.1056523E-17
  -12.07300        1.1068295E-17
  -11.91150        1.1061541E-17
  -11.75000        1.1051789E-17
  -11.58850        1.1057981E-17
  -11.42700        1.1088949E-17
  -11.26550        1.1136863E-17
  -11.10400        1.1182292E-17
  -10.94250        1.1207338E-17
  -10.78100        1.1207657E-17
  -10.61950        1.1195022E-17
  -10.45800        1.1188651E-17
  -10.29650        1.1201472E-17
  -10.13500        1.1230969E-17
  -9.973500        1.1261025E-17
  -9.812000        1.1273457E-17
  -9.650500        1.1261099E-17
  -9.489000        1.1233247E-17
  -9.327500        1.1209622E-17
  -9.166000        1.1207061E-17
  -9.004500        1.1228213E-17
  -8.843000        1.1260073E-17
  -8.681500        1.1283307E-17
  -8.520000        1.1285778E-17
  -8.358500        1.1270795E-17
  -8.197000        1.1254403E-17
  -8.035500        1.1253719E-17
  -7.874000        1.1274612E-17
  -7.712500        1.1307414E-17
  -7.551000        1.1333666E-17
  -7.389500        1.1339141E-17
  -7.228000        1.1323948E-17
  -7.066500        1.1302640E-17
  -6.905000        1.1294231E-17
  -6.743500        1.1309161E-17
  -6.582000        1.1342304E-17
  -6.420500        1.1376868E-17
  -6.259000        1.1396356E-17
  -6.097500        1.1396111E-17
  -5.936000        1.1386321E-17
  -5.774500        1.1384432E-17
  -5.613000        1.1402397E-17
  -5.451500        1.1437819E-17
  -5.290000        1.1475292E-17
  -5.128500        1.1497002E-17
  -4.967000        1.1495152E-17
  -4.805500        1.1477440E-17
  -4.644000        1.1461744E-17
  -4.482500        1.1463739E-17
  -4.321000        1.1486116E-17
  -4.159500        1.1516962E-17
  -3.998000        1.1538390E-17
  -3.836500        1.1539304E-17
  -3.675000        1.1523336E-17
  -3.513500        1.1506334E-17
  -3.352000        1.1505210E-17
  -3.190500        1.1525974E-17
  -3.029000        1.1559369E-17
  -2.867500        1.1587236E-17
  -2.706000        1.1595134E-17
  -2.544500        1.1582419E-17
  -2.383000        1.1562706E-17
  -2.221500        1.1554380E-17
  -2.060000        1.1567764E-17
  -1.898500        1.1597933E-17
  -1.737000        1.1628162E-17
  -1.575500        1.1641589E-17
  -1.414000        1.1632951E-17
  -1.252500        1.1612175E-17
  -1.091000        1.1597369E-17
 -0.9295000        1.1602155E-17
 -0.7680000        1.1626236E-17
 -0.6065000        1.1655781E-17
 -0.4450000        1.1673341E-17
 -0.2835000        1.1670290E-17
 -0.1220000        1.1653059E-17
  3.9500002E-02    1.1638798E-17
  0.2010000        1.1643509E-17
  0.3625000        1.1670939E-17
  0.5240000        1.1709964E-17
  0.6855000        1.1742229E-17
  0.8470000        1.1754651E-17
   1.008500        1.1748040E-17
   1.170000        1.1735898E-17
   1.331500        1.1734356E-17
   1.493000        1.1750430E-17
   1.654500        1.1776880E-17
   1.816000        1.1797324E-17
   1.977500        1.1797952E-17
   2.139000        1.1777604E-17
   2.300500        1.1749100E-17
   2.462000        1.1730842E-17
   2.623500        1.1734565E-17
   2.785000        1.1757757E-17
   2.946500        1.1786009E-17
   3.108000        1.1803552E-17
   3.269500        1.1804510E-17
   3.431000        1.1796917E-17
   3.592500        1.1796712E-17
   3.754000        1.1815969E-17
   3.915500        1.1853757E-17
   4.077000        1.1896130E-17
   4.238500        1.1925332E-17
   4.400000        1.1931802E-17
   4.561500        1.1920566E-17
   4.723000        1.1907516E-17
   4.884500        1.1908194E-17
   5.046000        1.1926928E-17
   5.207500        1.1953922E-17
   5.369000        1.1972338E-17
   5.530500        1.1970362E-17
   5.692000        1.1949775E-17
   5.853500        1.1924964E-17
   6.015000        1.1913066E-17
   6.176500        1.1922104E-17
   6.338000        1.1945477E-17
   6.499500        1.1966673E-17
   6.661000        1.1970952E-17
   6.822500        1.1955815E-17
   6.984000        1.1932935E-17
   7.145500        1.1920155E-17
   7.307000        1.1929141E-17
   7.468500        1.1957318E-17
   7.630000        1.1989720E-17
   7.791500        1.2009432E-17
   7.953000        1.2009299E-17
   8.114500        1.1996719E-17
   8.276000        1.1988198E-17
   8.437500        1.1997546E-17
   8.599000        1.2026021E-17
   8.760500        1.2061341E-17
   8.922000        1.2086240E-17
   9.083500        1.2090531E-17
   9.245000        1.2078223E-17
   9.406500        1.2064707E-17
   9.568000        1.2066022E-17
   9.729500        1.2087709E-17
   9.891000        1.2121041E-17
   10.05250        1.2149187E-17
   10.21400        1.2158952E-17
   10.37550        1.2149813E-17
   10.53700        1.2133968E-17
   10.69850        1.2127411E-17
   10.86000        1.2138420E-17
   11.02150        1.2161594E-17
   11.18300        1.2181675E-17
   11.34450        1.2184462E-17
   11.50600        1.2167091E-17
   11.66750        1.2140438E-17
   11.82900        1.2121896E-17
   11.99050        1.2123591E-17
   12.15200        1.2144300E-17
   12.31350        1.2170705E-17
   12.47500        1.2187046E-17
   12.63650        1.2186313E-17
   12.79800        1.2175056E-17
   12.95950        1.2168445E-17
   13.12100        1.2179092E-17
   13.28250        1.2207612E-17
   13.44400        1.2241630E-17
   13.60550        1.2264039E-17
   13.76700        1.2264757E-17
   13.92850        1.2247737E-17
   14.09000        1.2228299E-17
   14.25150        1.2222629E-17
   14.41300        1.2236768E-17
   14.57450        1.2262784E-17
   14.73600        1.2284767E-17
   14.89750        1.2290388E-17
   15.05900        1.2279852E-17
   15.22050        1.2265935E-17
   15.38200        1.2265036E-17
   15.54350        1.2285550E-17
   15.70500        1.2321724E-17
   15.86650        1.2357360E-17
   16.02800        1.2376816E-17
   16.18950        1.2375615E-17
   16.35100        1.2363273E-17
   16.51250        1.2356411E-17
   16.67400        1.2366999E-17
   16.83550        1.2393983E-17
   16.99700        1.2424089E-17
   17.15850        1.2441210E-17
   17.32000        1.2437715E-17
   17.48150        1.2419777E-17
   17.64300        1.2403033E-17
   17.80450        1.2401677E-17
   17.96600        1.2418674E-17
   18.12750        1.2443923E-17
   18.28900        1.2461619E-17
   18.45050        1.2461582E-17
   18.61200        1.2446601E-17
   18.77350        1.2430653E-17
   18.93500        1.2429270E-17
   19.09650        1.2448804E-17
   19.25800        1.2482088E-17
   19.41950        1.2513464E-17
   19.58100        1.2529608E-17
   19.74250        1.2528504E-17
   19.90400        1.2520313E-17
   20.06550        1.2519596E-17
   20.22700        1.2534474E-17
   20.38850        1.2560436E-17
   20.55000        1.2583231E-17
   20.71150        1.2588820E-17
   20.87300        1.2573375E-17
   21.03450        1.2546256E-17
   21.19600        1.2523834E-17
   21.35750        1.2518480E-17
   21.51900        1.2530435E-17
   21.68050        1.2548219E-17
   21.84200        1.2557225E-17
   22.00350        1.2550377E-17
   22.16500        1.2533298E-17
   22.32650        1.2520365E-17
   22.48800        1.2524430E-17
   22.64950        1.2547509E-17
   22.81100        1.2579018E-17
   22.97250        1.2602874E-17
   23.13400        1.2608543E-17
   23.29550        1.2598315E-17
   23.45700        1.2585728E-17
   23.61850        1.2586201E-17
   23.78000        1.2606391E-17
   23.94150        1.2639699E-17
   24.10300        1.2670983E-17
   24.26450        1.2687218E-17
   24.42600        1.2686579E-17
   24.58750        1.2679603E-17
   24.74900        1.2681591E-17
   24.91050        1.2701579E-17
   25.07200        1.2735631E-17
   25.23350        1.2769194E-17
   25.39500        1.2786913E-17
   25.55650        1.2783093E-17
   25.71800        1.2765511E-17
   25.87950        1.2749943E-17
   26.04100        1.2749242E-17
   26.20250        1.2764614E-17
   26.36400        1.2785128E-17
   26.52550        1.2795756E-17
   26.68700        1.2788221E-17
   26.84850        1.2767050E-17
   27.01000        1.2746578E-17
   27.17150        1.2741061E-17
   27.33300        1.2754824E-17
   27.49450        1.2779372E-17
   27.65600        1.2799463E-17
   27.81750        1.2803869E-17
   27.97900        1.2793257E-17
   28.14050        1.2779662E-17
   28.30200        1.2777948E-17
   28.46350        1.2795262E-17
   28.62500        1.2825918E-17
   28.78650        1.2855298E-17
   28.94800        1.2870016E-17
   29.10950        1.2867154E-17
   29.27100        1.2856044E-17
   29.43250        1.2851360E-17
   29.59400        1.2862451E-17
   29.75550        1.2886495E-17
   29.91700        1.2910384E-17
   30.07850        1.2920028E-17
   30.24000        1.2910484E-17
   30.40150        1.2889735E-17
   30.56300        1.2873391E-17
   30.72450        1.2874020E-17
   30.88600        1.2892594E-17
   31.04750        1.2918064E-17
   31.20900        1.2935306E-17
   31.37050        1.2935853E-17
   31.53200        1.2923793E-17
   31.69350        1.2912693E-17
   31.85500        1.2915716E-17
   32.01650        1.2935910E-17
   32.17800        1.2963574E-17
   32.33950        1.2982658E-17
   32.50100        1.2981787E-17
   32.66250        1.2962218E-17
   32.82400        1.2937162E-17
   32.98550        1.2922867E-17
   33.14700        1.2927682E-17
   33.30850        1.2946734E-17
   33.47000        1.2965906E-17
   33.63150        1.2972297E-17
   33.79300        1.2963746E-17
   33.95450        1.2950666E-17
   34.11600        1.2948843E-17
   34.27750        1.2968260E-17
   34.43900        1.3005818E-17
   34.60050        1.3047128E-17
   34.76200        1.3076136E-17
   34.92350        1.3085860E-17
   35.08500        1.3082730E-17
   35.24650        1.3081559E-17
   35.40800        1.3094754E-17
   35.56950        1.3123405E-17
   35.73100        1.3156505E-17
   35.89250        1.3178761E-17
   36.05400        1.3181427E-17
   36.21550        1.3168455E-17
   36.37700        1.3153679E-17
   36.53850        1.3151030E-17
   36.70000        1.3164748E-17
   36.86150        1.3186471E-17
   37.02300        1.3201242E-17
   37.18450        1.3198156E-17
   37.34600        1.3178117E-17
   37.50750        1.3153269E-17
   37.66900        1.3138529E-17
   37.83050        1.3141264E-17
   37.99200        1.3156379E-17
   38.15350        1.3170277E-17
   38.31500        1.3170809E-17
   38.47650        1.3156120E-17
   38.63800        1.3136089E-17
   38.79950        1.3125331E-17
   38.96100        1.3132755E-17
   39.12250        1.3155109E-17
   39.28400        1.3179144E-17
   39.44550        1.3190876E-17
   39.60700        1.3185418E-17
   39.76850        1.3170413E-17
   39.93000        1.3160650E-17
   40.09150        1.3167665E-17
   40.25300        1.3191662E-17
   40.41450        1.3221450E-17
   40.57600        1.3242379E-17
   40.73750        1.3246673E-17
   40.89900        1.3238795E-17
   41.06050        1.3232089E-17
   41.22200        1.3239067E-17
   41.38350        1.3262217E-17
   41.54500        1.3291856E-17
   41.70650        1.3312598E-17
   41.86800        1.3313940E-17
   42.02950        1.3297578E-17
   42.19100        1.3276322E-17
   42.35250        1.3265407E-17
   42.51400        1.3272266E-17
   42.67550        1.3291888E-17
   42.83700        1.3310954E-17
   42.99850        1.3317711E-17
   43.16000        1.3310572E-17
   43.32150        1.3299345E-17
   43.48300        1.3298258E-17
   43.64450        1.3315713E-17
   43.80600        1.3348043E-17
   43.96750        1.3381654E-17
   44.12900        1.3402059E-17
   44.29050        1.3403478E-17
   44.45200        1.3392326E-17
   44.61350        1.3382263E-17
   44.77500        1.3384413E-17
   44.93650        1.3399696E-17
   45.09800        1.3418577E-17
   45.25950        1.3428288E-17
   45.42100        1.3422280E-17
   45.58250        1.3405168E-17
   45.74400        1.3389688E-17
   45.90550        1.3387871E-17
   46.06700        1.3402691E-17
   46.22850        1.3426081E-17
   46.39000        1.3444661E-17
   46.55150        1.3449080E-17
   46.71300        1.3440402E-17
   46.87450        1.3429065E-17
   47.03600        1.3427249E-17
   47.19750        1.3440133E-17
   47.35900        1.3462202E-17
   47.52050        1.3481198E-17
   47.68200        1.3486851E-17
   47.84350        1.3478164E-17
   48.00500        1.3464073E-17
   48.16650        1.3457065E-17
   48.32800        1.3464265E-17
   48.48950        1.3482338E-17
   48.65100        1.3499816E-17
   48.81250        1.3505224E-17
   48.97400        1.3495259E-17
   49.13550        1.3477283E-17
   49.29700        1.3464360E-17
   49.45850        1.3466346E-17
   49.62000        1.3483247E-17
   49.78150        1.3505501E-17
   49.94300        1.3520897E-17
   50.10450        1.3523245E-17
   50.26600        1.3516675E-17
   50.42750        1.3512546E-17
   50.58900        1.3521179E-17
   50.75050        1.3544227E-17
   50.91200        1.3573093E-17
   51.07350        1.3594501E-17
   51.23500        1.3599384E-17
   51.39650        1.3588915E-17
   51.55800        1.3573504E-17
   51.71950        1.3565549E-17
   51.88100        1.3571026E-17
   52.04250        1.3585755E-17
   52.20400        1.3598846E-17
   52.36550        1.3600782E-17
   52.52700        1.3590388E-17
   52.68850        1.3575793E-17
   52.85000        1.3568767E-17
   53.01150        1.3576466E-17
   53.17300        1.3596391E-17
   53.33450        1.3618063E-17
   53.49600        1.3630181E-17
   53.65750        1.3628241E-17
   53.81900        1.3617355E-17
   53.98050        1.3608415E-17
   54.14200        1.3610420E-17
   54.30350        1.3624369E-17
   54.46500        1.3642939E-17
   54.62650        1.3656034E-17
   54.78800        1.3658193E-17
   54.94950        1.3652589E-17
   55.11100        1.3648816E-17
   55.27250        1.3656073E-17
   55.43400        1.3676556E-17
   55.59550        1.3703723E-17
   55.75700        1.3726630E-17
   55.91850        1.3737289E-17
   56.08000        1.3735899E-17
   56.24150        1.3730320E-17
   56.40300        1.3730224E-17
   56.56450        1.3740099E-17
   56.72600        1.3756043E-17
   56.88750        1.3768607E-17
   57.04900        1.3769641E-17
   57.21050        1.3758260E-17
   57.37200        1.3741730E-17
   57.53350        1.3730579E-17
   57.69500        1.3731392E-17
   57.85650        1.3742319E-17
   58.01800        1.3754485E-17
   58.17950        1.3758296E-17
   58.34100        1.3750241E-17
   58.50250        1.3735452E-17
   58.66400        1.3724217E-17
   58.82550        1.3724912E-17
   58.98700        1.3738271E-17
   59.14850        1.3756969E-17
   59.31000        1.3770786E-17
   59.47150        1.3773705E-17
   59.63300        1.3768006E-17
   59.79450        1.3762489E-17
   59.95600        1.3766117E-17
   60.11750        1.3781511E-17
   60.27900        1.3802857E-17
   60.44050        1.3819678E-17
   60.60200        1.3823879E-17
   60.76350        1.3815189E-17
   60.92500        1.3801272E-17
   61.08650        1.3792487E-17
   61.24800        1.3794965E-17
   61.40950        1.3806771E-17
   61.57100        1.3819753E-17
   61.73250        1.3825651E-17
   61.89400        1.3822156E-17
   62.05550        1.3814638E-17
   62.21700        1.3812374E-17
   62.37850        1.3821948E-17
   62.54000        1.3842442E-17
   62.70150        1.3865809E-17
   62.86300        1.3882142E-17
   63.02450        1.3886175E-17
   63.18600        1.3880529E-17
   63.34750        1.3873501E-17
   63.50900        1.3873072E-17
   63.67050        1.3881338E-17
   63.83200        1.3893304E-17
   63.99350        1.3900785E-17
   64.15500        1.3898608E-17
   64.31650        1.3888660E-17
   64.47800        1.3878901E-17
   64.63950        1.3878000E-17
   64.80100        1.3889358E-17
   64.96250        1.3908748E-17
   65.12400        1.3927199E-17
   65.28550        1.3937161E-17
   65.44700        1.3937593E-17
   65.60850        1.3934443E-17
   65.77000        1.3936212E-17
   65.93150        1.3947719E-17
   66.09300        1.3966519E-17
   66.25450        1.3984474E-17
   66.41600        1.3993434E-17
   66.57750        1.3990999E-17
   66.73900        1.3982294E-17
   66.90050        1.3976447E-17
   67.06200        1.3980208E-17
   67.22350        1.3993148E-17
   67.38500        1.4007864E-17
   67.54650        1.4015063E-17
   67.70800        1.4010029E-17
   67.86950        1.3995957E-17
   68.03100        1.3981817E-17
   68.19250        1.3976244E-17
   68.35400        1.3981697E-17
   68.51550        1.3992963E-17
   68.67700        1.4001039E-17
   68.83850        1.3999628E-17
   69.00000        1.3989729E-17
   69.16150        1.3979068E-17
   69.32300        1.3976793E-17
   69.48450        1.3987106E-17
   69.64600        1.4006282E-17
   69.80750        1.4025150E-17
   69.96900        1.4035324E-17
   70.13050        1.4034864E-17
   70.29200        1.4029478E-17
   70.45350        1.4028455E-17
   70.61500        1.4038193E-17
   70.77650        1.4057797E-17
   70.93800        1.4079820E-17
   71.09950        1.4095527E-17
   71.26100        1.4101001E-17
   71.42250        1.4099752E-17
   71.58400        1.4100013E-17
   71.74550        1.4108649E-17
   71.90700        1.4125975E-17
   72.06850        1.4145181E-17
   72.23000        1.4156783E-17
   72.39150        1.4155019E-17
   72.55300        1.4141687E-17
   72.71450        1.4124786E-17
   72.87600        1.4112939E-17
   73.03750        1.4109572E-17
   73.19900        1.4110937E-17
   73.36050        1.4109347E-17
   73.52200        1.4099249E-17
   73.68350        1.4081761E-17
   73.84500        1.4064401E-17
   74.00650        1.4056148E-17
   74.16800        1.4061268E-17
   74.32950        1.4076298E-17
   74.49100        1.4092334E-17
   74.65250        1.4101070E-17
   74.81400        1.4100387E-17
   74.97550        1.4095555E-17
   75.13700        1.4095232E-17
   75.29850        1.4105074E-17
   75.46000        1.4123477E-17
   75.62150        1.4142517E-17
   75.78300        1.4153452E-17
   75.94450        1.4152953E-17
   76.10600        1.4145619E-17
   76.26750        1.4140960E-17
   76.42900        1.4146851E-17
   76.59050        1.4164049E-17
   76.75200        1.4185630E-17
   76.91350        1.4201793E-17
   77.07500        1.4206691E-17
   77.23650        1.4202527E-17
   77.39800        1.4198011E-17
   77.55950        1.4202241E-17
   77.72100        1.4218298E-17
   77.88250        1.4241028E-17
   78.04400        1.4260620E-17
   78.20550        1.4269436E-17
   78.36700        1.4267320E-17
   78.52850        1.4261634E-17
   78.69000        1.4261995E-17
   78.85150        1.4273394E-17
   79.01300        1.4292561E-17
   79.17450        1.4310124E-17
   79.33600        1.4317075E-17
   79.49750        1.4311014E-17
   79.65900        1.4297789E-17
   79.82050        1.4287424E-17
   79.98200        1.4287166E-17
   80.14350        1.4296603E-17
   80.30500        1.4308238E-17
   80.46650        1.4313098E-17
   80.62800        1.4307354E-17
   80.78950        1.4295218E-17
   80.95100        1.4286043E-17
   81.11250        1.4287664E-17
   81.27400        1.4300720E-17
   81.43550        1.4318027E-17
   81.59700        1.4329475E-17
   81.75850        1.4329016E-17
   81.92000        1.4318761E-17
   82.08150        1.4307300E-17
   82.24300        1.4303462E-17
   82.40450        1.4309973E-17
   82.56600        1.4321562E-17
   82.72750        1.4328878E-17
   82.88900        1.4325402E-17
   83.05050        1.4312425E-17
   83.21200        1.4298432E-17
   83.37350        1.4293300E-17
   83.53500        1.4301351E-17
   83.69650        1.4318197E-17
   83.85800        1.4333690E-17
   84.01950        1.4338938E-17
   84.18100        1.4332466E-17
   84.34250        1.4321183E-17
   84.50400        1.4315386E-17
   84.66550        1.4321367E-17
   84.82700        1.4336825E-17
   84.98850        1.4352447E-17
   85.15000        1.4358577E-17
   85.31150        1.4352302E-17
   85.47300        1.4339862E-17
   85.63450        1.4332578E-17
   85.79600        1.4339077E-17
   85.95750        1.4359281E-17
   86.11900        1.4384428E-17
   86.28050        1.4403138E-17
   86.44200        1.4409286E-17
   86.60350        1.4406108E-17
   86.76500        1.4403628E-17
   86.92650        1.4411266E-17
   87.08800        1.4430854E-17
   87.24950        1.4455054E-17
   87.41100        1.4472327E-17
   87.57250        1.4474934E-17
   87.73400        1.4464328E-17
   87.89550        1.4450111E-17
   88.05700        1.4443301E-17
   88.21850        1.4448663E-17
   88.38000        1.4461511E-17
   88.54150        1.4471258E-17
   88.70300        1.4469143E-17
   88.86450        1.4454673E-17
   89.02600        1.4436161E-17
   89.18750        1.4424999E-17
   89.34900        1.4427726E-17
   89.51050        1.4441571E-17
   89.67200        1.4456649E-17
   89.83350        1.4463238E-17
   89.99500        1.4458904E-17
   90.15650        1.4450319E-17
   90.31800        1.4448451E-17
   90.47950        1.4460512E-17
   90.64100        1.4484513E-17
   90.80250        1.4510371E-17
   90.96400        1.4526804E-17
   91.12550        1.4529111E-17
   91.28700        1.4522269E-17
   91.44850        1.4517083E-17
   91.61000        1.4522209E-17
   91.77150        1.4537765E-17
   91.93300        1.4555183E-17
   92.09450        1.4563430E-17
   92.25600        1.4557189E-17
   92.41750        1.4541068E-17
   92.57900        1.4526731E-17
   92.74050        1.4524924E-17
   92.90200        1.4537961E-17
   93.06350        1.4558084E-17
   93.22500        1.4572897E-17
   93.38650        1.4574072E-17
   93.54800        1.4563193E-17
   93.70950        1.4550522E-17
   93.87100        1.4547516E-17
   94.03250        1.4558418E-17
   94.19400        1.4576964E-17
   94.35550        1.4590642E-17
   94.51700        1.4589590E-17
   94.67850        1.4573784E-17
   94.84000        1.4553361E-17
   95.00150        1.4541752E-17
   95.16300        1.4546426E-17
   95.32450        1.4563813E-17
   95.48600        1.4582011E-17
   95.64750        1.4589343E-17
   95.80900        1.4582681E-17
   95.97050        1.4569569E-17
   96.13200        1.4562688E-17
   96.29350        1.4570623E-17
   96.45500        1.4591577E-17
   96.61650        1.4614533E-17
   96.77800        1.4627020E-17
   96.93950        1.4623953E-17
   97.10100        1.4611226E-17
   97.26250        1.4601506E-17
   97.42400        1.4605245E-17
   97.58550        1.4623321E-17
   97.74700        1.4646546E-17
   97.90850        1.4662352E-17
   98.07000        1.4663829E-17
   98.23150        1.4654615E-17
   98.39300        1.4646111E-17
   98.55450        1.4649063E-17
   98.71600        1.4665563E-17
   98.87750        1.4687320E-17
   99.03900        1.4701483E-17
   99.20050        1.4699880E-17
   99.36200        1.4684982E-17
   99.52350        1.4668243E-17
   99.68500        1.4661942E-17
   99.84650        1.4670392E-17
   100.0080        1.4686852E-17
   100.1695        1.4698454E-17
   100.3310        1.4695603E-17
   100.4925        1.4679094E-17
   100.6540        1.4659732E-17
   100.8155        1.4650682E-17
   100.9770        1.4658008E-17
   101.1385        1.4676214E-17
   101.3000        1.4692124E-17
   101.4615        1.4694372E-17
   101.6230        1.4681758E-17
   101.7845        1.4664402E-17
   101.9460        1.4656782E-17
   102.1075        1.4667505E-17
   102.2690        1.4693103E-17
   102.4305        1.4720291E-17
   102.5920        1.4735180E-17
   102.7535        1.4732919E-17
   102.9150        1.4720875E-17
   103.0765        1.4713078E-17
   103.2380        1.4719858E-17
   103.3995        1.4740102E-17
   103.5610        1.4761758E-17
   103.7225        1.4770279E-17
   103.8840        1.4759069E-17
   104.0455        1.4734441E-17
   104.2070        1.4711510E-17
   104.3685        1.4703903E-17
   104.5300        1.4714589E-17
   104.6915        1.4734307E-17
   104.8530        1.4748670E-17
   105.0145        1.4748749E-17
   105.1760        1.4737513E-17
   105.3375        1.4727544E-17
   105.4990        1.4731686E-17
   105.6605        1.4753474E-17
   105.8220        1.4784211E-17
   105.9835        1.4808869E-17
   106.1450        1.4816539E-17
   106.3065        1.4807985E-17
   106.4680        1.4794858E-17
   106.6295        1.4791187E-17
   106.7910        1.4803297E-17
   106.9525        1.4825374E-17
   107.1140        1.4843865E-17
   107.2755        1.4847477E-17
   107.4370        1.4835531E-17
   107.5985        1.4818573E-17
   107.7600        1.4810768E-17
   107.9215        1.4819535E-17
   108.0830        1.4839979E-17
   108.2445        1.4858252E-17
   108.4060        1.4861488E-17
   108.5675        1.4847225E-17
   108.7290        1.4825406E-17
   108.8905        1.4811453E-17
   109.0520        1.4815301E-17
   109.2135        1.4834295E-17
   109.3750        1.4855103E-17
   109.5365        1.4863326E-17
   109.6980        1.4853930E-17
   109.8595        1.4834927E-17
   110.0210        1.4821604E-17
   110.1825        1.4825403E-17
   110.3440        1.4845414E-17
   110.5055        1.4868710E-17
   110.6670        1.4879361E-17
   110.8285        1.4869766E-17
   110.9900        1.4846238E-17
   111.1515        1.4824772E-17
   111.3130        1.4819956E-17
   111.4745        1.4834851E-17
   111.6360        1.4859003E-17
   111.7975        1.4876026E-17
   111.9590        1.4875326E-17
   112.1205        1.4859600E-17
   112.2820        1.4842762E-17
   112.4435        1.4839804E-17
   112.6050        1.4855808E-17
   112.7665        1.4882074E-17
   112.9280        1.4902120E-17
   113.0895        1.4903333E-17
   113.2510        1.4885932E-17
   113.4125        1.4862866E-17
   113.5740        1.4850704E-17
   113.7355        1.4858078E-17
   113.8970        1.4879869E-17
   114.0585        1.4901268E-17
   114.2200        1.4908640E-17
   114.3815        1.4899344E-17
   114.5430        1.4883452E-17
   114.7045        1.4876185E-17
   114.8660        1.4886606E-17
   115.0275        1.4910759E-17
   115.1890        1.4934251E-17
   115.3505        1.4942419E-17
   115.5120        1.4930789E-17
   115.6735        1.4908301E-17
   115.8350        1.4890993E-17
   115.9965        1.4890682E-17
   116.1580        1.4906767E-17
   116.3195        1.4927037E-17
   116.4810        1.4936854E-17
   116.6425        1.4930053E-17
   116.8040        1.4913630E-17
   116.9655        1.4902774E-17
   117.1270        1.4909797E-17
   117.2885        1.4934928E-17
   117.4500        1.4965719E-17
   117.6115        1.4985578E-17
   117.7730        1.4985427E-17
   117.9345        1.4970095E-17
   118.0960        1.4954810E-17
   118.2575        1.4954262E-17
   118.4190        1.4971999E-17
   118.5805        1.4997812E-17
   118.7420        1.5015014E-17