  -27.90000        5.2193959E-18
  -27.73850        5.2196329E-18
  -27.57700        5.2200047E-18
  -27.41550        5.2203927E-18
  -27.25400        5.2207521E-18
  -27.09250        5.2211181E-18
  -26.93100        5.2215408E-18
  -26.76950        5.2220123E-18
  -26.60800        5.2224648E-18
  -26.44650        5.2228399E-18
  -26.28500        5.2231472E-18
  -26.12350        5.2234615E-18
  -25.96200        5.2238457E-18
  -25.80050        5.2242866E-18
  -25.63900        5.2247031E-18
  -25.47750        5.2250270E-18
  -25.31600        5.2252780E-18
  -25.15450        5.2255514E-18
  -24.99300        5.2259269E-18
  -24.83150        5.2263844E-18
  -24.67000        5.2268124E-18
  -24.50850        5.2271102E-18
  -24.34700        5.2272827E-18
  -24.18550        5.2274448E-18
  -24.02400        5.2277240E-18
  -23.86250        5.2281475E-18
  -23.70100        5.2286198E-18
  -23.53950        5.2290069E-18
  -23.37800        5.2292505E-18
  -23.21650        5.2294106E-18
  -23.05500        5.2296046E-18
  -22.89350        5.2299007E-18
  -22.73200        5.2302622E-18
  -22.57050        5.2305926E-18
  -22.40900        5.2308321E-18
  -22.24750        5.2310104E-18
  -22.08600        5.2312139E-18
  -21.92450        5.2314976E-18
  -21.76300        5.2318355E-18
  -21.60150        5.2321465E-18
  -21.44000        5.2323707E-18
  -21.27850        5.2325191E-18
  -21.11700        5.2326618E-18
  -20.95550        5.2328641E-18
  -20.79400        5.2331433E-18
  -20.63250        5.2334654E-18
  -20.47100        5.2337897E-18
  -20.30950        5.2340916E-18
  -20.14800        5.2343625E-18
  -19.98650        5.2345875E-18
  -19.82500        5.2347376E-18
  -19.66350        5.2348042E-18
  -19.50200        5.2348241E-18
  -19.34050        5.2348733E-18
  -19.17900        5.2350048E-18
  -19.01750        5.2351967E-18
  -18.85600        5.2353680E-18
  -18.69450        5.2354536E-18
  -18.53300        5.2354842E-18
  -18.37150        5.2355921E-18
  -18.21000        5.2359052E-18
  -18.04850        5.2364354E-18
  -17.88700        5.2370347E-18
  -17.72550        5.2374901E-18
  -17.56400        5.2376729E-18
  -17.40250        5.2376402E-18
  -17.24100        5.2375856E-18
  -17.07950        5.2376870E-18
  -16.91800        5.2379657E-18
  -16.75650        5.2382784E-18
  -16.59500        5.2384393E-18
  -16.43350        5.2383706E-18
  -16.27200        5.2381593E-18
  -16.11050        5.2379802E-18
  -15.94900        5.2379632E-18
  -15.78750        5.2381047E-18
  -15.62600        5.2382933E-18
  -15.46450        5.2384132E-18
  -15.30300        5.2384343E-18
  -15.14150        5.2384153E-18
  -14.98000        5.2384467E-18
  -14.81850        5.2385741E-18
  -14.65700        5.2387730E-18
  -14.49550        5.2389757E-18
  -14.33400        5.2391234E-18
  -14.17250        5.2391899E-18
  -14.01100        5.2391928E-18
  -13.84950        5.2391813E-18
  -13.68800        5.2392284E-18
  -13.52650        5.2394087E-18
  -13.36500        5.2397595E-18
  -13.20350        5.2402520E-18
  -13.04200        5.2408029E-18
  -12.88050        5.2413361E-18
  -12.71900        5.2418497E-18
  -12.55750        5.2424304E-18
  -12.39600        5.2431803E-18
  -12.23450        5.2441113E-18
  -12.07300        5.2450952E-18
  -11.91150        5.2459335E-18
  -11.75000        5.2465002E-18
  -11.58850        5.2468538E-18
  -11.42700        5.2472049E-18
  -11.26550        5.2477434E-18
  -11.10400        5.2484672E-18
  -10.94250        5.2491475E-18
  -10.78100        5.2494718E-18
  -10.61950        5.2492584E-18
  -10.45800        5.2485710E-18
  -10.29650        5.2476508E-18
  -10.13500        5.2467210E-18
  -9.973500        5.2458264E-18
  -9.812000        5.2448321E-18
  -9.650500        5.2435707E-18
  -9.489000        5.2420193E-18
  -9.327500        5.2403616E-18
  -9.166000        5.2388967E-18
  -9.004500        5.2378739E-18
  -8.843000        5.2373764E-18
  -8.681500        5.2373242E-18
  -8.520000        5.2375707E-18
  -8.358500        5.2380021E-18
  -8.197000        5.2385915E-18
  -8.035500        5.2393847E-18
  -7.874000        5.2404485E-18
  -7.712500        5.2418117E-18
  -7.551000        5.2434214E-18
  -7.389500        5.2451386E-18
  -7.228000        5.2467797E-18
  -7.066500        5.2481930E-18
  -6.905000        5.2493341E-18
  -6.743500        5.2502829E-18
  -6.582000        5.2511679E-18
  -6.420500        5.2520464E-18
  -6.259000        5.2528240E-18
  -6.097500        5.2532888E-18
  -5.936000        5.2532562E-18
  -5.774500        5.2527177E-18
  -5.613000        5.2518648E-18
  -5.451500        5.2509628E-18
  -5.290000        5.2501650E-18
  -5.128500        5.2494222E-18
  -4.967000        5.2485673E-18
  -4.805500        5.2475114E-18
  -4.644000        5.2463839E-18
  -4.482500        5.2454993E-18
  -4.321000        5.2451622E-18
  -4.159500        5.2454612E-18
  -3.998000        5.2462152E-18
  -3.836500        5.2471110E-18
  -3.675000        5.2479208E-18
  -3.513500        5.2486322E-18
  -3.352000        5.2493945E-18
  -3.190500        5.2503503E-18
  -3.029000        5.2514876E-18
  -2.867500        5.2526358E-18
  -2.706000        5.2535879E-18
  -2.544500        5.2542496E-18
  -2.383000        5.2546913E-18
  -2.221500        5.2550958E-18
  -2.060000        5.2556376E-18
  -1.898500        5.2563833E-18
  -1.737000        5.2572622E-18
  -1.575500        5.2581117E-18
  -1.414000        5.2587495E-18
  -1.252500        5.2590534E-18
  -1.091000        5.2590146E-18
 -0.9295000        5.2587420E-18
 -0.7680000        5.2583996E-18
 -0.6065000        5.2581047E-18
 -0.4450000        5.2578383E-18
 -0.2835000        5.2574566E-18
 -0.1220000        5.2568093E-18
  3.9500002E-02    5.2558978E-18
  0.2010000        5.2549283E-18
  0.3625000        5.2542033E-18
  0.5240000        5.2539100E-18
  0.6855000        5.2539721E-18
  0.8470000        5.2540842E-18
   1.008500        5.2539349E-18
   1.170000        5.2534336E-18
   1.331500        5.2527756E-18
   1.493000        5.2522830E-18
   1.654500        5.2521502E-18
   1.816000        5.2523028E-18
   1.977500        5.2524736E-18
   2.139000        5.2524352E-18
   2.300500        5.2521845E-18
   2.462000        5.2519476E-18
   2.623500        5.2520030E-18
   2.785000        5.2524815E-18
   2.946500        5.2532872E-18
   3.108000        5.2541888E-18
   3.269500        5.2549817E-18
   3.431000        5.2555979E-18
   3.592500        5.2561029E-18
   3.754000        5.2566095E-18
   3.915500        5.2571865E-18
   4.077000        5.2578226E-18
   4.238500        5.2584484E-18
   4.400000        5.2589769E-18
   4.561500        5.2593566E-18
   4.723000        5.2596019E-18
   4.884500        5.2598037E-18
   5.046000        5.2600924E-18
   5.207500        5.2605494E-18
   5.369000        5.2611247E-18
   5.530500        5.2616198E-18
   5.692000        5.2617906E-18
   5.853500        5.2615077E-18
   6.015000        5.2608579E-18
   6.176500        5.2600949E-18
   6.338000        5.2594646E-18
   6.499500        5.2590315E-18
   6.661000        5.2586659E-18
   6.822500        5.2582035E-18
   6.984000        5.2576543E-18
   7.145500        5.2572825E-18
   7.307000        5.2574628E-18
   7.468500        5.2584153E-18
   7.630000        5.2600275E-18
   7.791500        5.2618965E-18
   7.953000        5.2635827E-18
   8.114500        5.2648623E-18
   8.276000        5.2658115E-18
   8.437500        5.2666627E-18
   8.599000        5.2675701E-18
   8.760500        5.2684610E-18
   8.922000        5.2690851E-18
   9.083500        5.2691930E-18
   9.245000        5.2687178E-18
   9.406500        5.2678228E-18
   9.568000        5.2668025E-18
   9.729500        5.2659137E-18
   9.891000        5.2652515E-18
   10.05250        5.2647296E-18
   10.21400        5.2641613E-18
   10.37550        5.2633829E-18
   10.53700        5.2623601E-18
   10.69850        5.2612227E-18
   10.86000        5.2602111E-18
   11.02150        5.2595531E-18
   11.18300        5.2593405E-18
   11.34450        5.2594881E-18
   11.50600        5.2598087E-18
   11.66750        5.2601735E-18
   11.82900        5.2606338E-18
   11.99050        5.2614064E-18
   12.15200        5.2627079E-18
   12.31350        5.2645592E-18
   12.47500        5.2667003E-18
   12.63650        5.2687120E-18
   12.79800        5.2702564E-18
   12.95950        5.2712680E-18
   13.12100        5.2719393E-18
   13.28250        5.2725216E-18
   13.44400        5.2730969E-18
   13.60550        5.2735072E-18
   13.76700        5.2735043E-18
   13.92850        5.2729964E-18
   14.09000        5.2721783E-18
   14.25150        5.2714347E-18
   14.41300        5.2710773E-18
   14.57450        5.2711212E-18
   14.73600        5.2712684E-18
   14.89750        5.2711121E-18
   15.05900        5.2703995E-18
   15.22050        5.2691757E-18
   15.38200        5.2677053E-18
   15.54350        5.2662689E-18
   15.70500        5.2649843E-18
   15.86650        5.2637791E-18
   16.02800        5.2625086E-18
   16.18950        5.2611181E-18
   16.35100        5.2597350E-18
   16.51250        5.2586403E-18
   16.67400        5.2581423E-18
   16.83550        5.2584260E-18
   16.99700        5.2594505E-18
   17.15850        5.2609473E-18
   17.32000        5.2625355E-18
   17.48150        5.2639094E-18
   17.64300        5.2649972E-18
   17.80450        5.2659815E-18
   17.96600        5.2671561E-18
   18.12750        5.2686947E-18
   18.28900        5.2704909E-18
   18.45050        5.2722110E-18
   18.61200        5.2735308E-18
   18.77350        5.2743877E-18
   18.93500        5.2750358E-18
   19.09650        5.2758448E-18
   19.25800        5.2769971E-18
   19.41950        5.2783057E-18
   19.58100        5.2793198E-18
   19.74250        5.2796333E-18
   19.90400        5.2791610E-18
   20.06550        5.2781704E-18
   20.22700        5.2770616E-18
   20.38850        5.2760756E-18
   20.55000        5.2751682E-18
   20.71150        5.2741288E-18
   20.87300        5.2728256E-18
   21.03450        5.2713735E-18
   21.19600        5.2700893E-18
   21.35750        5.2692910E-18
   21.51900        5.2690929E-18
   21.68050        5.2693490E-18
   21.84200        5.2697592E-18
   22.00350        5.2700578E-18
   22.16500        5.2701526E-18
   22.32650        5.2701455E-18
   22.48800        5.2702493E-18
   22.64950        5.2706509E-18
   22.81100        5.2713971E-18
   22.97250        5.2723686E-18
   23.13400        5.2733575E-18
   23.29550        5.2742190E-18
   23.45700        5.2749928E-18
   23.61850        5.2759023E-18
   23.78000        5.2771943E-18
   23.94150        5.2789211E-18
   24.10300        5.2808062E-18
   24.26450        5.2823394E-18
   24.42600        5.2830533E-18
   24.58750        5.2828150E-18
   24.74900        5.2819064E-18
   24.91050        5.2808248E-18
   25.07200        5.2799410E-18
   25.23350        5.2792697E-18
   25.39500        5.2785224E-18
   25.55650        5.2773920E-18
   25.71800        5.2758494E-18
   25.87950        5.2742095E-18
   26.04100        5.2729311E-18
   26.20250        5.2722821E-18
   26.36400        5.2721477E-18
   26.52550        5.2721072E-18
   26.68700        5.2717197E-18
   26.84850        5.2708135E-18
   27.01000        5.2695752E-18
   27.17150        5.2684022E-18
   27.33300        5.2676396E-18
   27.49450        5.2673927E-18
   27.65600        5.2675205E-18
   27.81750        5.2677905E-18
   27.97900        5.2680697E-18
   28.14050        5.2684163E-18
   28.30200        5.2690288E-18
   28.46350        5.2700827E-18
   28.62500        5.2715794E-18
   28.78650        5.2732934E-18
   28.94800        5.2748725E-18
   29.10950        5.2760185E-18
   29.27100        5.2766592E-18
   29.43250        5.2769904E-18
   29.59400        5.2773486E-18
   29.75550        5.2779988E-18
   29.91700        5.2789591E-18
   30.07850        5.2800030E-18
   30.24000        5.2808418E-18
   30.40150        5.2813604E-18
   30.56300        5.2817182E-18
   30.72450        5.2822228E-18
   30.88600        5.2830566E-18
   31.04750        5.2840661E-18
   31.20900        5.2847937E-18
   31.37050        5.2847523E-18
   31.53200        5.2837572E-18
   31.69350        5.2820582E-18
   31.85500        5.2801772E-18
   32.01650        5.2785654E-18
   32.17800        5.2773383E-18
   32.33950        5.2762828E-18
   32.50100        5.2751177E-18
   32.66250        5.2737893E-18
   32.82400        5.2725654E-18
   32.98550        5.2718677E-18
   33.14700        5.2719678E-18
   33.30850        5.2727925E-18
   33.47000        5.2739547E-18
   33.63150        5.2750011E-18
   33.79300        5.2756777E-18
   33.95450        5.2760541E-18
   34.11600        5.2764371E-18
   34.27750        5.2771517E-18
   34.43900        5.2783363E-18
   34.60050        5.2798653E-18
   34.76200        5.2814341E-18
   34.92350        5.2827451E-18
   35.08500        5.2836782E-18
   35.24650        5.2843441E-18
   35.40800        5.2849773E-18
   35.56950        5.2857205E-18
   35.73100        5.2864530E-18
   35.89250        5.2867913E-18
   36.05400        5.2863099E-18
   36.21550        5.2848346E-18
   36.37700        5.2826099E-18
   36.53850        5.2801879E-18
   36.70000        5.2781038E-18
   36.86150        5.2765570E-18
   37.02300        5.2753460E-18
   37.18450        5.2740961E-18
   37.34600        5.2726192E-18
   37.50750        5.2711117E-18
   37.66900        5.2700384E-18
   37.83050        5.2697845E-18
   37.99200        5.2703544E-18
   38.15350        5.2713516E-18
   38.31500        5.2722569E-18
   38.47650        5.2727867E-18
   38.63800        5.2730659E-18
   38.79950        5.2735039E-18
   38.96100        5.2744779E-18
   39.12250        5.2760690E-18
   39.28400        5.2780203E-18
   39.44550        5.2799286E-18
   39.60700        5.2815139E-18
   39.76850        5.2827662E-18
   39.93000        5.2838966E-18
   40.09150        5.2851262E-18
   40.25300        5.2864840E-18
   40.41450        5.2877426E-18
   40.57600        5.2885259E-18
   40.73750        5.2885230E-18
   40.89900        5.2876863E-18
   41.06050        5.2862760E-18
   41.22200        5.2847283E-18
   41.38350        5.2834152E-18
   41.54500        5.2824440E-18
   41.70650        5.2816458E-18
   41.86800        5.2807595E-18
   42.02950        5.2796858E-18
   42.19100        5.2786270E-18
   42.35250        5.2779810E-18
   42.51400        5.2780678E-18
   42.67550        5.2788694E-18
   42.83700        5.2799948E-18
   42.99850        5.2809191E-18
   43.16000        5.2813402E-18
   43.32150        5.2813861E-18
   43.48300        5.2815176E-18
   43.64450        5.2821802E-18
   43.80600        5.2834731E-18
   43.96750        5.2850774E-18
   44.12900        5.2864927E-18
   44.29050        5.2873927E-18
   44.45200        5.2878377E-18
   44.61350        5.2881847E-18
   44.77500        5.2887765E-18
   44.93650        5.2896533E-18
   45.09800        5.2904938E-18
   45.25950        5.2908296E-18
   45.42100        5.2903635E-18
   45.58250        5.2891566E-18
   45.74400        5.2875742E-18
   45.90550        5.2860464E-18
   46.06700        5.2848267E-18
   46.22850        5.2838891E-18
   46.39000        5.2830131E-18
   46.55150        5.2819705E-18
   46.71300        5.2806904E-18
   46.87450        5.2793090E-18
   47.03600        5.2780852E-18
   47.19750        5.2772353E-18
   47.35900        5.2767911E-18
   47.52050        5.2765752E-18
   47.68200        5.2763163E-18
   47.84350        5.2758419E-18
   48.00500        5.2752265E-18
   48.16650        5.2747757E-18
   48.32800        5.2748394E-18
   48.48950        5.2755714E-18
   48.65100        5.2768105E-18
   48.81250        5.2781928E-18
   48.97400        5.2794133E-18
   49.13550        5.2804406E-18
   49.29700        5.2815052E-18
   49.45850        5.2828643E-18
   49.62000        5.2845368E-18
   49.78150        5.2862168E-18
   49.94300        5.2874634E-18
   50.10450        5.2880168E-18
   50.26600        5.2879969E-18
   50.42750        5.2878282E-18
   50.58900        5.2879431E-18
   50.75050        5.2884924E-18
   50.91200        5.2892720E-18
   51.07350        5.2899102E-18
   51.23500        5.2901459E-18
   51.39650        5.2899995E-18
   51.55800        5.2897150E-18
   51.71950        5.2895533E-18
   51.88100        5.2895868E-18
   52.04250        5.2896405E-18
   52.20400        5.2894019E-18
   52.36550        5.2886161E-18
   52.52700        5.2872574E-18
   52.68850        5.2855766E-18
   52.85000        5.2839925E-18
   53.01150        5.2828924E-18
   53.17300        5.2824337E-18
   53.33450        5.2824701E-18
   53.49600        5.2826558E-18
   53.65750        5.2826777E-18
   53.81900        5.2824722E-18
   53.98050        5.2822596E-18
   54.14200        5.2823713E-18
   54.30350        5.2829705E-18
   54.46500        5.2838937E-18
   54.62650        5.2847477E-18
   54.78800        5.2852027E-18
   54.94950        5.2852540E-18
   55.11100        5.2852403E-18
   55.27250        5.2855960E-18
   55.43400        5.2865245E-18
   55.59550        5.2878373E-18
   55.75700        5.2890859E-18
   55.91850        5.2898655E-18
   56.08000        5.2900620E-18
   56.24150        5.2898539E-18
   56.40300        5.2895028E-18
   56.56450        5.2891086E-18
   56.72600        5.2885391E-18
   56.88750        5.2875693E-18
   57.04900        5.2861130E-18
   57.21050        5.2843590E-18
   57.37200        5.2827100E-18
   57.53350        5.2815759E-18
   57.69500        5.2811640E-18
   57.85650        5.2813981E-18
   58.01800        5.2820007E-18
   58.17950        5.2826773E-18
   58.34100        5.2832820E-18
   58.50250        5.2838668E-18
   58.66400        5.2845877E-18
   58.82550        5.2855323E-18
   58.98700        5.2865953E-18
   59.14850        5.2874845E-18
   59.31000        5.2878894E-18
   59.47150        5.2877057E-18
   59.63300        5.2871582E-18
   59.79450        5.2867119E-18
   59.95600        5.2868054E-18
   60.11750        5.2875622E-18
   60.27900        5.2887058E-18
   60.44050        5.2897352E-18
   60.60200        5.2902642E-18
   60.76350        5.2902634E-18
   60.92500        5.2900405E-18
   61.08650        5.2899652E-18
   61.24800        5.2901629E-18
   61.40950        5.2904036E-18
   61.57100        5.2902754E-18
   61.73250        5.2895127E-18
   61.89400        5.2882198E-18
   62.05550        5.2868318E-18
   62.21700        5.2858363E-18
   62.37850        5.2854736E-18
   62.54000        5.2856175E-18
   62.70150        5.2859079E-18
   62.86300        5.2860092E-18
   63.02450        5.2858115E-18
   63.18600        5.2854488E-18
   63.34750        5.2851543E-18
   63.50900        5.2850770E-18
   63.67050        5.2851944E-18
   63.83200        5.2853570E-18
   63.99350        5.2854256E-18
   64.15500        5.2853938E-18
   64.31650        5.2854149E-18
   64.47800        5.2857201E-18
   64.63950        5.2864691E-18
   64.80100        5.2876259E-18
   64.96250        5.2889387E-18
   65.12400        5.2900405E-18
   65.28550        5.2906282E-18
   65.44700        5.2906125E-18
   65.60850        5.2901294E-18
   65.77000        5.2894060E-18
   65.93150        5.2885755E-18
   66.09300        5.2875908E-18
   66.25450        5.2863136E-18
   66.41600        5.2847188E-18
   66.57750        5.2830392E-18
   66.73900        5.2817170E-18
   66.90050        5.2811681E-18
   67.06200        5.2815222E-18
   67.22350        5.2825355E-18
   67.38500        5.2837485E-18
   67.54650        5.2847755E-18
   67.70800        5.2855125E-18
   67.86950        5.2861184E-18
   68.03100        5.2868099E-18
   68.19250        5.2876433E-18
   68.35400        5.2884527E-18
   68.51550        5.2889755E-18
   68.67700        5.2890603E-18
   68.83850        5.2887852E-18
   69.00000        5.2884126E-18
   69.16150        5.2882298E-18
   69.32300        5.2883919E-18
   69.48450        5.2888539E-18
   69.64600        5.2894213E-18
   69.80750        5.2898688E-18
   69.96900        5.2900566E-18
   70.13050        5.2899929E-18
   70.29200        5.2898093E-18
   70.45350        5.2896794E-18
   70.61500        5.2897046E-18
   70.77650        5.2898572E-18
   70.93800        5.2900119E-18
   71.09950        5.2900624E-18
   71.26100        5.2900384E-18
   71.42250        5.2901261E-18
   71.58400        5.2905450E-18
   71.74550        5.2913697E-18
   71.90700        5.2924248E-18
   72.06850        5.2933616E-18
   72.23000        5.2938732E-18
   72.39150        5.2938968E-18
   72.55300        5.2936420E-18
   72.71450        5.2934274E-18
   72.87600        5.2934398E-18
   73.03750        5.2936155E-18
   73.19900        5.2937284E-18
   73.36050        5.2936147E-18
   73.52200        5.2933488E-18
   73.68350        5.2932197E-18
   73.84500        5.2935254E-18
   74.00650        5.2943248E-18
   74.16800        5.2953534E-18
   74.32950        5.2961546E-18
   74.49100        5.2963303E-18
   74.65250        5.2957447E-18
   74.81400        5.2945478E-18
   74.97550        5.2930411E-18
   75.13700        5.2914917E-18
   75.29850        5.2900103E-18
   75.46000        5.2885677E-18
   75.62150        5.2870957E-18
   75.78300        5.2856039E-18
   75.94450        5.2842299E-18
   76.10600        5.2831980E-18
   76.26750        5.2827121E-18
   76.42900        5.2828357E-18
   76.59050        5.2834284E-18
   76.75200        5.2841915E-18
   76.91350        5.2848081E-18
   77.07500        5.2851237E-18
   77.23650        5.2852316E-18
   77.39800        5.2854054E-18
   77.55950        5.2859070E-18
   77.72100        5.2868054E-18
   77.88250        5.2879535E-18
   78.04400        5.2891339E-18
   78.20550        5.2902580E-18
   78.36700        5.2914479E-18
   78.52850        5.2929162E-18
   78.69000        5.2947463E-18
   78.85150        5.2967530E-18
   79.01300        5.2985621E-18
   79.17450        5.2998525E-18
   79.33600        5.3005705E-18
   79.49750        5.3009427E-18
   79.65900        5.3012790E-18
   79.82050        5.3017298E-18
   79.98200        5.3022029E-18
   80.14350        5.3024866E-18
   80.30500        5.3024626E-18
   80.46650        5.3022215E-18
   80.62800        5.3019936E-18
   80.78950        5.3019605E-18
   80.95100        5.3020983E-18
   81.11250        5.3021682E-18
   81.27400        5.3018398E-18
   81.43550        5.3008583E-18
   81.59700        5.2991519E-18
   81.75850        5.2968370E-18
   81.92000        5.2941573E-18
   82.08150        5.2913884E-18
   82.24300        5.2887463E-18
   82.40450        5.2863268E-18
   82.56600        5.2841100E-18
   82.72750        5.2820528E-18
   82.88900        5.2802061E-18
   83.05050        5.2787685E-18
   83.21200        5.2779889E-18
   83.37350        5.2779752E-18
   83.53500        5.2785571E-18
   83.69650        5.2793475E-18
   83.85800        5.2799881E-18
   84.01950        5.2804030E-18
   84.18100        5.2808542E-18
   84.34250        5.2817356E-18
   84.50400        5.2832654E-18
   84.66550        5.2853301E-18
   84.82700        5.2876085E-18
   84.98850        5.2898692E-18
   85.15000        5.2921618E-18
   85.31150        5.2947331E-18
   85.47300        5.2977332E-18
   85.63450        5.3009783E-18
   85.79600        5.3039751E-18
   85.95750        5.3061994E-18
   86.11900        5.3073980E-18
   86.28050        5.3076834E-18
   86.44200        5.3073778E-18
   86.60350        5.3067483E-18
   86.76500        5.3058595E-18
   86.92650        5.3046232E-18
   87.08800        5.3029726E-18
   87.24950        5.3009977E-18
   87.41100        5.2989434E-18
   87.57250        5.2971025E-18
   87.73400        5.2956955E-18
   87.89550        5.2947939E-18
   88.05700        5.2943108E-18
   88.21850        5.2940345E-18
   88.38000        5.2937165E-18
   88.54150        5.2931986E-18
   88.70300        5.2925241E-18
   88.86450        5.2919264E-18
   89.02600        5.2916799E-18
   89.18750        5.2918946E-18
   89.34900        5.2924244E-18
   89.51050        5.2929832E-18
   89.67200        5.2933967E-18
   89.83350        5.2937653E-18
   89.99500        5.2943952E-18
   90.15650        5.2955044E-18
   90.31800        5.2969635E-18
   90.47950        5.2983044E-18
   90.64100        5.2990249E-18
   90.80250        5.2989525E-18
   90.96400        5.2983528E-18
   91.12550        5.2976964E-18
   91.28700        5.2972737E-18
   91.44850        5.2969917E-18
   91.61000        5.2965136E-18
   91.77150        5.2956123E-18
   91.93300        5.2944361E-18
   92.09450        5.2934542E-18
   92.25600        5.2931263E-18
   92.41750        5.2935663E-18
   92.57900        5.2944572E-18
   92.74050        5.2952728E-18
   92.90200        5.2956115E-18
   93.06350        5.2954126E-18
   93.22500        5.2949130E-18
   93.38650        5.2944406E-18
   93.54800        5.2941954E-18
   93.70950        5.2941582E-18
   93.87100        5.2941524E-18
   94.03250        5.2939886E-18
   94.19400        5.2936040E-18
   94.35550        5.2931201E-18
   94.51700        5.2927958E-18
   94.67850        5.2928835E-18
   94.84000        5.2934609E-18
   95.00150        5.2943538E-18
   95.16300        5.2952066E-18
   95.32450        5.2956856E-18
   95.48600        5.2956802E-18
   95.64750        5.2953613E-18
   95.80900        5.2950391E-18
   95.97050        5.2949241E-18
   96.13200        5.2949870E-18
   96.29350        5.2950321E-18
   96.45500        5.2949274E-18
   96.61650        5.2947852E-18
   96.77800        5.2949283E-18
   96.93950        5.2956475E-18
   97.10100        5.2969586E-18
   97.26250        5.2985600E-18
   97.42400        5.3000402E-18
   97.58550        5.3011693E-18
   97.74700        5.3020387E-18
   97.90850        5.3029259E-18
   98.07000        5.3040029E-18
   98.23150        5.3051249E-18
   98.39300        5.3058946E-18
   98.55450        5.3059562E-18
   98.71600        5.3052862E-18
   98.87750        5.3042518E-18
   99.03900        5.3033825E-18
   99.20050        5.3030260E-18
   99.36200        5.3031442E-18
   99.52350        5.3033796E-18
   99.68500        5.3033316E-18
   99.84650        5.3028258E-18
   100.0080        5.3020023E-18
   100.1695        5.3011884E-18
   100.3310        5.3006602E-18
   100.4925        5.3004667E-18
   100.6540        5.3004133E-18
   100.8155        5.3002032E-18
   100.9770        5.2996225E-18
   101.1385        5.2986775E-18
   101.3000        5.2976009E-18
   101.4615        5.2967212E-18
   101.6230        5.2962724E-18
   101.7845        5.2962509E-18
   101.9460        5.2964110E-18
   102.1075        5.2964234E-18
   102.2690        5.2960996E-18
   102.4305        5.2955160E-18
   102.5920        5.2949498E-18
   102.7535        5.2946640E-18
   102.9150        5.2947099E-18
   103.0765        5.2949088E-18
   103.2380        5.2950296E-18
   103.3995        5.2950209E-18
   103.5610        5.2950978E-18
   103.7225        5.2955970E-18
   103.8840        5.2967179E-18
   104.0455        5.2983590E-18
   104.2070        5.3001883E-18
   104.3685        5.3018869E-18
   104.5300        5.3033676E-18
   104.6915        5.3047759E-18
   104.8530        5.3062933E-18
   105.0145        5.3079113E-18
   105.1760        5.3093795E-18
   105.3375        5.3103626E-18
   105.4990        5.3106823E-18
   105.6605        5.3104495E-18
   105.8220        5.3099879E-18
   105.9835        5.3096173E-18
   106.1450        5.3094693E-18
   106.3065        5.3094461E-18
   106.4680        5.3093353E-18
   106.6295        5.3089713E-18
   106.7910        5.3083183E-18
   106.9525        5.3074563E-18
   107.1140        5.3065022E-18
   107.2755        5.3055381E-18
   107.4370        5.3045757E-18
   107.5985        5.3035603E-18
   107.7600        5.3024085E-18
   107.9215        5.3010722E-18
   108.0830        5.2996018E-18
   108.2445        5.2981812E-18
   108.4060        5.2970810E-18
   108.5675        5.2965533E-18
   108.7290        5.2967125E-18
   108.8905        5.2974851E-18
   109.0520        5.2986667E-18
   109.2135        5.3000374E-18
   109.3750        5.3014634E-18
   109.5365        5.3028994E-18
   109.6980        5.3043279E-18
   109.8595        5.3056899E-18
   110.0210        5.3068856E-18
   110.1825        5.3078294E-18
   110.3440        5.3085027E-18
   110.5055        5.3089399E-18
   110.6670        5.3091760E-18
   110.8285        5.3092141E-18
   110.9900        5.3090387E-18
   111.1515        5.3086723E-18
   111.3130        5.3082000E-18
   111.4745        5.3077198E-18
   111.6360        5.3072628E-18
   111.7975        5.3067557E-18
   111.9590        5.3060791E-18
   112.1205        5.3051882E-18
   112.2820        5.3041865E-18
   112.4435        5.3032828E-18
   112.6050        5.3026546E-18
   112.7665        5.3023353E-18
   112.9280        5.3022104E-18
   113.0895        5.3021454E-18
   113.2510        5.3021239E-18
   113.4125        5.3022761E-18
   113.5740        5.3027604E-18
   113.7355        5.3036013E-18
   113.8970        5.3046046E-18
   114.0585        5.3054504E-18
   114.2200        5.3058835E-18
   114.3815        5.3058748E-18
   114.5430        5.3056171E-18
   114.7045        5.3053743E-18
   114.8660        5.3052871E-18
   115.0275        5.3052970E-18
   115.1890        5.3052287E-18
   115.3505        5.3049616E-18
   115.5120        5.3045604E-18
   115.6735        5.3042663E-18
   115.8350        5.3043573E-18
   115.9965        5.3049789E-18
   116.1580        5.3060543E-18
   116.3195        5.3073310E-18
   116.4810        5.3085230E-18
   116.6425        5.3094585E-18
   116.8040        5.3101505E-18
   116.9655        5.3107489E-18
   117.1270        5.3114127E-18
   117.2885        5.3121804E-18
   117.4500        5.3129248E-18
   117.6115        5.3134294E-18
   117.7730        5.3135332E-18
   117.9345        5.3132582E-18
   118.0960        5.3128041E-18
   118.2575        5.3124128E-18
   118.4190        5.3121820E-18
   118.5805        5.3119707E-18
   118.7420        5.3114930E-18