  -27.90000       -7.1561323E-19
  -27.73850       -7.1640562E-19
  -27.57700       -7.1759433E-19
  -27.41550       -7.1863839E-19
  -27.25400       -7.1917435E-19
  -27.09250       -7.1923272E-19
  -26.93100       -7.1920583E-19
  -26.76950       -7.1958411E-19
  -26.60800       -7.2061798E-19
  -26.44650       -7.2212774E-19
  -26.28500       -7.2359925E-19
  -26.12350       -7.2451173E-19
  -25.96200       -7.2468291E-19
  -25.80050       -7.2439903E-19
  -25.63900       -7.2422909E-19
  -25.47750       -7.2464904E-19
  -25.31600       -7.2573141E-19
  -25.15450       -7.2710773E-19
  -24.99300       -7.2823146E-19
  -24.83150       -7.2874353E-19
  -24.67000       -7.2869892E-19
  -24.50850       -7.2850805E-19
  -24.34700       -7.2865358E-19
  -24.18550       -7.2937855E-19
  -24.02400       -7.3054870E-19
  -23.86250       -7.3175194E-19
  -23.70100       -7.3256526E-19
  -23.53950       -7.3280887E-19
  -23.37800       -7.3264927E-19
  -23.21650       -7.3248999E-19
  -23.05500       -7.3273277E-19
  -22.89350       -7.3353699E-19
  -22.73200       -7.3471898E-19
  -22.57050       -7.3584829E-19
  -22.40900       -7.3649877E-19
  -22.24750       -7.3651836E-19
  -22.08600       -7.3614763E-19
  -21.92450       -7.3588991E-19
  -21.76300       -7.3619535E-19
  -21.60150       -7.3715638E-19
  -21.44000       -7.3842455E-19
  -21.27850       -7.3942719E-19
  -21.11700       -7.3975693E-19
  -20.95550       -7.3945501E-19
  -20.79400       -7.3900238E-19
  -20.63250       -7.3900249E-19
  -20.47100       -7.3977006E-19
  -20.30950       -7.4111583E-19
  -20.14800       -7.4247401E-19
  -19.98650       -7.4328170E-19
  -19.82500       -7.4334813E-19
  -19.66350       -7.4296024E-19
  -19.50200       -7.4266788E-19
  -19.34050       -7.4291521E-19
  -19.17900       -7.4376596E-19
  -19.01750       -7.4489036E-19
  -18.85600       -7.4579783E-19
  -18.69450       -7.4615140E-19
  -18.53300       -7.4596771E-19
  -18.37150       -7.4560091E-19
  -18.21000       -7.4552403E-19
  -18.04850       -7.4604893E-19
  -17.88700       -7.4713419E-19
  -17.72550       -7.4839838E-19
  -17.56400       -7.4933123E-19
  -17.40250       -7.4958668E-19
  -17.24100       -7.4920028E-19
  -17.07950       -7.4858062E-19
  -16.91800       -7.4827668E-19
  -16.75650       -7.4863573E-19
  -16.59500       -7.4956843E-19
  -16.43350       -7.5059222E-19
  -16.27200       -7.5114524E-19
  -16.11050       -7.5097727E-19
  -15.94900       -7.5034975E-19
  -15.78750       -7.4989170E-19
  -15.62600       -7.5019538E-19
  -15.46450       -7.5141914E-19
  -15.30300       -7.5315911E-19
  -15.14150       -7.5468909E-19
  -14.98000       -7.5541339E-19
  -14.81850       -7.5524356E-19
  -14.65700       -7.5464447E-19
  -14.49550       -7.5432441E-19
  -14.33400       -7.5476876E-19
  -14.17250       -7.5592340E-19
  -14.01100       -7.5723505E-19
  -13.84950       -7.5800360E-19
  -13.68800       -7.5782488E-19
  -13.52650       -7.5684689E-19
  -13.36500       -7.5568176E-19
  -13.20350       -7.5504472E-19
  -13.04200       -7.5533041E-19
  -12.88050       -7.5638315E-19
  -12.71900       -7.5760268E-19
  -12.55750       -7.5831348E-19
  -12.39600       -7.5817581E-19
  -12.23450       -7.5738885E-19
  -12.07300       -7.5656027E-19
  -11.91150       -7.5633275E-19
  -11.75000       -7.5698751E-19
  -11.58850       -7.5826783E-19
  -11.42700       -7.5953104E-19
  -11.26550       -7.6014621E-19
  -11.10400       -7.5988900E-19
  -10.94250       -7.5908540E-19
  -10.78100       -7.5840866E-19
  -10.61950       -7.5845752E-19
  -10.45800       -7.5938267E-19
  -10.29650       -7.6080185E-19
  -10.13500       -7.6204603E-19
  -9.973500       -7.6258044E-19
  -9.812000       -7.6233834E-19
  -9.650500       -7.6176179E-19
  -9.489000       -7.6151664E-19
  -9.327500       -7.6206992E-19
  -9.166000       -7.6338777E-19
  -9.004500       -7.6494887E-19
  -8.843000       -7.6607053E-19
  -8.681500       -7.6633527E-19
  -8.520000       -7.6585737E-19
  -8.358500       -7.6521315E-19
  -8.197000       -7.6507569E-19
  -8.035500       -7.6577765E-19
  -7.874000       -7.6707327E-19
  -7.712500       -7.6827543E-19
  -7.551000       -7.6868974E-19
  -7.389500       -7.6808399E-19
  -7.228000       -7.6687703E-19
  -7.066500       -7.6591124E-19
  -6.905000       -7.6593507E-19
  -6.743500       -7.6712813E-19
  -6.582000       -7.6897532E-19
  -6.420500       -7.7058326E-19
  -6.259000       -7.7125136E-19
  -6.097500       -7.7093657E-19
  -5.936000       -7.7031153E-19
  -5.774500       -7.7035687E-19
  -5.613000       -7.7172973E-19
  -5.451500       -7.7430578E-19
  -5.290000       -7.7719388E-19
  -5.128500       -7.7923960E-19
  -4.967000       -7.7971575E-19
  -4.805500       -7.7877519E-19
  -4.644000       -7.7737245E-19
  -4.482500       -7.7667870E-19
  -4.321000       -7.7734107E-19
  -4.159500       -7.7904356E-19
  -3.998000       -7.8067104E-19
  -3.836500       -7.8099633E-19
  -3.675000       -7.7947230E-19
  -3.513500       -7.7661873E-19
  -3.352000       -7.7373275E-19
  -3.190500       -7.7209912E-19
  -3.029000       -7.7218815E-19
  -2.867500       -7.7335716E-19
  -2.706000       -7.7424715E-19
  -2.544500       -7.7363788E-19
  -2.383000       -7.7121905E-19
  -2.221500       -7.6779628E-19
  -2.060000       -7.6479537E-19
  -1.898500       -7.6337738E-19
  -1.737000       -7.6371994E-19
  -1.575500       -7.6492550E-19
  -1.414000       -7.6560555E-19
  -1.252500       -7.6478028E-19
  -1.091000       -7.6252239E-19
 -0.9295000       -7.5993672E-19
 -0.7680000       -7.5848993E-19
 -0.6065000       -7.5909434E-19
 -0.4450000       -7.6152972E-19
 -0.2835000       -7.6457808E-19
 -0.1220000       -7.6680899E-19
  3.9500002E-02   -7.6750723E-19
  0.2010000       -7.6715098E-19
  0.3625000       -7.6710755E-19
  0.5240000       -7.6873508E-19
  0.6855000       -7.7246872E-19
  0.8470000       -7.7748841E-19
   1.008500       -7.8220603E-19
   1.170000       -7.8527538E-19
   1.331500       -7.8645867E-19
   1.493000       -7.8677682E-19
   1.654500       -7.8781628E-19
   1.816000       -7.9063386E-19
   1.977500       -7.9498959E-19
   2.139000       -7.9943816E-19
   2.300500       -8.0223222E-19
   2.462000       -8.0245675E-19
   2.623500       -8.0064063E-19
   2.785000       -7.9843743E-19
   2.946500       -7.9756972E-19
   3.108000       -7.9871671E-19
   3.269500       -8.0107200E-19
   3.431000       -8.0287158E-19
   3.592500       -8.0254712E-19
   3.754000       -7.9976102E-19
   3.915500       -7.9565154E-19
   4.077000       -7.9213530E-19
   4.238500       -7.9071270E-19
   4.400000       -7.9153781E-19
   4.561500       -7.9332825E-19
   4.723000       -7.9417171E-19
   4.884500       -7.9272844E-19
   5.046000       -7.8908848E-19
   5.207500       -7.8475193E-19
   5.369000       -7.8172828E-19
   5.530500       -7.8130378E-19
   5.692000       -7.8323447E-19
   5.853500       -7.8587912E-19
   6.015000       -7.8720359E-19
   6.176500       -7.8605164E-19
   6.338000       -7.8288307E-19
   6.499500       -7.7950988E-19
   6.661000       -7.7796461E-19
   6.822500       -7.7919514E-19
   6.984000       -7.8242926E-19
   7.145500       -7.8563397E-19
   7.307000       -7.8681192E-19
   7.468500       -7.8529456E-19
   7.630000       -7.8219357E-19
   7.791500       -7.7968804E-19
   7.953000       -7.7960884E-19
   8.114500       -7.8224728E-19
   8.276000       -7.8616915E-19
   8.437500       -7.8915548E-19
   8.599000       -7.8965391E-19
   8.760500       -7.8778660E-19
   8.922000       -7.8524969E-19
   9.083500       -7.8418526E-19
   9.245000       -7.8577717E-19
   9.406500       -7.8949101E-19
   9.568000       -7.9344126E-19
   9.729500       -7.9562512E-19
   9.891000       -7.9519995E-19
   10.05250       -7.9300079E-19
   10.21400       -7.9098257E-19
   10.37550       -7.9095941E-19
   10.53700       -7.9344235E-19
   10.69850       -7.9730119E-19
   10.86000       -8.0045658E-19
   11.02150       -8.0117922E-19
   11.18300       -7.9917414E-19
   11.34450       -7.9577572E-19
   11.50600       -7.9312083E-19
   11.66750       -7.9280826E-19
   11.82900       -7.9488335E-19
   11.99050       -7.9779564E-19
   12.15200       -7.9938435E-19
   12.31350       -7.9829510E-19
   12.47500       -7.9492196E-19
   12.63650       -7.9124158E-19
   12.79800       -7.8960366E-19
   12.95950       -7.9123320E-19
   13.12100       -7.9542406E-19
   13.28250       -7.9996301E-19
   13.44400       -8.0253683E-19
   13.60550       -8.0220762E-19
   13.76700       -8.0000163E-19
   13.92850       -7.9822288E-19
   14.09000       -7.9892567E-19
   14.25150       -8.0254692E-19
   14.41300       -8.0758843E-19
   14.57450       -8.1157445E-19
   14.73600       -8.1264943E-19
   14.89750       -8.1077431E-19
   15.05900       -8.0773437E-19
   15.22050       -8.0597098E-19
   15.38200       -8.0700320E-19
   15.54350       -8.1046407E-19
   15.70500       -8.1435342E-19
   15.86650       -8.1633173E-19
   16.02800       -8.1521472E-19
   16.18950       -8.1171016E-19
   16.35100       -8.0793305E-19
   16.51250       -8.0603441E-19
   16.67400       -8.0682918E-19
   16.83550       -8.0930664E-19
   16.99700       -8.1130960E-19
   17.15850       -8.1093861E-19
   17.32000       -8.0777418E-19
   17.48150       -8.0315407E-19
   17.64300       -7.9933585E-19
   17.80450       -7.9807332E-19
   17.96600       -7.9951018E-19
   18.12750       -8.0208850E-19
   18.28900       -8.0355246E-19
   18.45050       -8.0240200E-19
   18.61200       -7.9887889E-19
   18.77350       -7.9483961E-19
   18.93500       -7.9259552E-19
   19.09650       -7.9345698E-19
   19.25800       -7.9690849E-19
   19.41950       -8.0095123E-19
   19.58100       -8.0339178E-19
   19.74250       -8.0325379E-19
   19.90400       -8.0139786E-19
   20.06550       -7.9993825E-19
   20.22700       -8.0083682E-19
   20.38850       -8.0459884E-19
   20.55000       -8.0990779E-19
   20.71150       -8.1443826E-19
   20.87300       -8.1629791E-19
   21.03450       -8.1517677E-19
   21.19600       -8.1247996E-19
   21.35750       -8.1038306E-19
   21.51900       -8.1043755E-19
   21.68050       -8.1261877E-19
   21.84200       -8.1541092E-19
   22.00350       -8.1684039E-19
   22.16500       -8.1577079E-19
   22.32650       -8.1262451E-19
   22.48800       -8.0909539E-19
   22.64950       -8.0707806E-19
   22.81100       -8.0750478E-19
   22.97250       -8.0981985E-19
   23.13400       -8.1238845E-19
   23.29550       -8.1355509E-19
   23.45700       -8.1267797E-19
   23.61850       -8.1049995E-19
   23.78000       -8.0864044E-19
   23.94150       -8.0855235E-19
   24.10300       -8.1060789E-19
   24.26450       -8.1388668E-19
   24.42600       -8.1677587E-19
   24.58750       -8.1799860E-19
   24.74900       -8.1740680E-19
   24.91050       -8.1605043E-19
   25.07200       -8.1547570E-19
   25.23350       -8.1671104E-19
   25.39500       -8.1958932E-19
   25.55650       -8.2284701E-19
   25.71800       -8.2493709E-19
   25.87950       -8.2501919E-19
   26.04100       -8.2348689E-19
   26.20250       -8.2168643E-19
   26.36400       -8.2103171E-19
   26.52550       -8.2208611E-19
   26.68700       -8.2420204E-19
   26.84850       -8.2593576E-19
   27.01000       -8.2596962E-19
   27.17150       -8.2394990E-19
   27.33300       -8.2072147E-19
   27.49450       -8.1780964E-19
   27.65600       -8.1648232E-19
   27.81750       -8.1698230E-19
   27.97900       -8.1840505E-19
   28.14050       -8.1929241E-19
   28.30200       -8.1856971E-19
   28.46350       -8.1624327E-19
   28.62500       -8.1342941E-19
   28.78650       -8.1168147E-19
   28.94800       -8.1202930E-19
   29.10950       -8.1433160E-19
   29.27100       -8.1735867E-19
   29.43250       -8.1955949E-19
   29.59400       -8.2003139E-19
   29.75550       -8.1907026E-19
   29.91700       -8.1795476E-19
   30.07850       -8.1810479E-19
   30.24000       -8.2015738E-19
   30.40150       -8.2353569E-19
   30.56300       -8.2678605E-19
   30.72450       -8.2846724E-19
   30.88600       -8.2802682E-19
   31.04750       -8.2611065E-19
   31.20900       -8.2412170E-19
   31.37050       -8.2332269E-19
   31.53200       -8.2405919E-19
   31.69350       -8.2559594E-19
   31.85500       -8.2664475E-19
   32.01650       -8.2622641E-19
   32.17800       -8.2430730E-19
   32.33950       -8.2181454E-19
   32.50100       -8.2003026E-19
   32.66250       -8.1977233E-19
   32.82400       -8.2089968E-19
   32.98550       -8.2244883E-19
   33.14700       -8.2329152E-19
   33.30850       -8.2286283E-19
   33.47000       -8.2148718E-19
   33.63150       -8.2011365E-19
   33.79300       -8.1967441E-19
   33.95450       -8.2049715E-19
   34.11600       -8.2213957E-19
   34.27750       -8.2372021E-19
   34.43900       -8.2451327E-19
   34.60050       -8.2441028E-19
   34.76200       -8.2395388E-19
   34.92350       -8.2394954E-19
   35.08500       -8.2492670E-19
   35.24650       -8.2680233E-19
   35.40800       -8.2896071E-19
   35.56950       -8.3067183E-19
   35.73100       -8.3156906E-19
   35.89250       -8.3186850E-19
   36.05400       -8.3219943E-19
   36.21550       -8.3315255E-19
   36.37700       -8.3486207E-19
   36.53850       -8.3690133E-19
   36.70000       -8.3856975E-19
   36.86150       -8.3937548E-19
   37.02300       -8.3936472E-19
   37.18450       -8.3906725E-19
   37.34600       -8.3908829E-19
   37.50750       -8.3965589E-19
   37.66900       -8.4044239E-19
   37.83050       -8.4080190E-19
   37.99200       -8.4025203E-19
   38.15350       -8.3885130E-19
   38.31500       -8.3717802E-19
   38.47650       -8.3591781E-19
   38.63800       -8.3535631E-19
   38.79950       -8.3516399E-19
   38.96100       -8.3464375E-19
   39.12250       -8.3327063E-19
   39.28400       -8.3110403E-19
   39.44550       -8.2877294E-19
   39.60700       -8.2703182E-19
   39.76850       -8.2622672E-19
   39.93000       -8.2606444E-19
   40.09150       -8.2586302E-19
   40.25300       -8.2509048E-19
   40.41450       -8.2379791E-19
   40.57600       -8.2262548E-19
   40.73750       -8.2237066E-19
   40.89900       -8.2343850E-19
   41.06050       -8.2555980E-19
   41.22200       -8.2797905E-19
   41.38350       -8.2996573E-19
   41.54500       -8.3127996E-19
   41.70650       -8.3228023E-19
   41.86800       -8.3361303E-19
   42.02950       -8.3571986E-19
   42.19100       -8.3848290E-19
   42.35250       -8.4126429E-19
   42.51400       -8.4329533E-19
   42.67550       -8.4417054E-19
   42.83700       -8.4411481E-19
   42.99850       -8.4383346E-19
   43.16000       -8.4403964E-19
   43.32150       -8.4495709E-19
   43.48300       -8.4614218E-19
   43.64450       -8.4676179E-19
   43.80600       -8.4616818E-19
   43.96750       -8.4439703E-19
   44.12900       -8.4223421E-19
   44.29050       -8.4076504E-19
   44.45200       -8.4066231E-19
   44.61350       -8.4169996E-19
   44.77500       -8.4286117E-19
   44.93650       -8.4301766E-19
   45.09800       -8.4175254E-19
   45.25950       -8.3973375E-19
   45.42100       -8.3833251E-19
   45.58250       -8.3869595E-19
   45.74400       -8.4089248E-19
   45.90550       -8.4374552E-19
   46.06700       -8.4552825E-19
   46.22850       -8.4509543E-19
   46.39000       -8.4269609E-19
   46.55150       -8.3988523E-19
   46.71300       -8.3854494E-19
   46.87450       -8.3965326E-19
   47.03600       -8.4261694E-19
   47.19750       -8.4563951E-19
   47.35900       -8.4689341E-19
   47.52050       -8.4573019E-19
   47.68200       -8.4313491E-19
   47.84350       -8.4111669E-19
   48.00500       -8.4141877E-19
   48.16650       -8.4436043E-19
   48.32800       -8.4856442E-19
   48.48950       -8.5174715E-19
   48.65100       -8.5210796E-19
   48.81250       -8.4943818E-19
   48.97400       -8.4526087E-19
   49.13550       -8.4189311E-19
   49.29700       -8.4101185E-19
   49.45850       -8.4261477E-19
   49.62000       -8.4503050E-19
   49.78150       -8.4599959E-19
   49.94300       -8.4415426E-19
   50.10450       -8.3996443E-19
   50.26600       -8.3552009E-19
   50.42750       -8.3325052E-19
   50.58900       -8.3439234E-19
   50.75050       -8.3818858E-19
   50.91200       -8.4235416E-19
   51.07350       -8.4452411E-19
   51.23500       -8.4375478E-19
   51.39650       -8.4110904E-19
   51.55800       -8.3893759E-19
   51.71950       -8.3931825E-19
   51.88100       -8.4266755E-19
   52.04250       -8.4742932E-19
   52.20400       -8.5106473E-19
   52.36550       -8.5169271E-19
   52.52700       -8.4931566E-19
   52.68850       -8.4581741E-19
   52.85000       -8.4372898E-19
   53.01150       -8.4457219E-19
   53.17300       -8.4786189E-19
   53.33450       -8.5142693E-19
   53.49600       -8.5284399E-19
   53.65750       -8.5106002E-19
   53.81900       -8.4712988E-19
   53.98050       -8.4357042E-19
   54.14200       -8.4272840E-19
   54.30350       -8.4522737E-19
   54.46500       -8.4951806E-19
   54.62650       -8.5284942E-19
   54.78800       -8.5304619E-19
   54.94950       -8.4994617E-19
   55.11100       -8.4555705E-19
   55.27250       -8.4279230E-19
   55.43400       -8.4358758E-19
   55.59550       -8.4760644E-19
   55.75700       -8.5239964E-19
   55.91850       -8.5496587E-19
   56.08000       -8.5373290E-19
   56.24150       -8.4966679E-19
   56.40300       -8.4574973E-19
   56.56450       -8.4511554E-19
   56.72600       -8.4901001E-19
   56.88750       -8.5590860E-19
   57.04900       -8.6239178E-19
   57.21050       -8.6527207E-19
   57.37200       -8.6361445E-19
   57.53350       -8.5934186E-19
   57.69500       -8.5598816E-19
   57.85650       -8.5637595E-19
   58.01800       -8.6071441E-19
   58.17950       -8.6636866E-19
   58.34100       -8.6948676E-19
   58.50250       -8.6746131E-19
   58.66400       -8.6064824E-19
   58.82550       -8.5223069E-19
   58.98700       -8.4628554E-19
   59.14850       -8.4525797E-19
   59.31000       -8.4845746E-19
   59.47150       -8.5254616E-19
   59.63300       -8.5373115E-19
   59.79450       -8.5025916E-19
   59.95600       -8.4361302E-19
   60.11750       -8.3761575E-19
   60.27900       -8.3601004E-19
   60.44050       -8.4004425E-19
   60.60200       -8.4762593E-19
   60.76350       -8.5460677E-19
   60.92500       -8.5739447E-19
   61.08650       -8.5522431E-19
   61.24800       -8.5061702E-19
   61.40950       -8.4770193E-19
   61.57100       -8.4948435E-19
   61.73250       -8.5582562E-19
   61.89400       -8.6346618E-19
   62.05550       -8.6808821E-19
   62.21700       -8.6709823E-19
   62.37850       -8.6131768E-19
   62.54000       -8.5447494E-19
   62.70150       -8.5082009E-19
   62.86300       -8.5240414E-19
   63.02450       -8.5779958E-19
   63.18600       -8.6310233E-19
   63.34750       -8.6455537E-19
   63.50900       -8.6106265E-19
   63.67050       -8.5493852E-19
   63.83200       -8.5040024E-19
   63.99350       -8.5080386E-19
   64.15500       -8.5643365E-19
   64.31650       -8.6428556E-19
   64.47800       -8.6998276E-19
   64.63950       -8.7056675E-19
   64.80100       -8.6635035E-19
   64.96250       -8.6064968E-19
   65.12400       -8.5758327E-19
   65.28550       -8.5938973E-19
   65.44700       -8.6500122E-19
   65.60850       -8.7076972E-19
   65.77000       -8.7286301E-19
   65.93150       -8.6976914E-19
   66.09300       -8.6328668E-19
   66.25450       -8.5737741E-19
   66.41600       -8.5561603E-19
   66.57750       -8.5888257E-19
   66.73900       -8.6478461E-19
   66.90050       -8.6919446E-19
   67.06200       -8.6891570E-19
   67.22350       -8.6375337E-19
   67.38500       -8.5664256E-19
   67.54650       -8.5173966E-19
   67.70800       -8.5171401E-19
   67.86950       -8.5600894E-19
   68.03100       -8.6121599E-19
   68.19250       -8.6332117E-19
   68.35400       -8.6036369E-19
   68.51550       -8.5375606E-19
   68.67700       -8.4739448E-19
   68.83850       -8.4514124E-19
   69.00000       -8.4832986E-19
   69.16150       -8.5492989E-19
   69.32300       -8.6091180E-19
   69.48450       -8.6288979E-19
   69.64600       -8.6030754E-19
   69.80750       -8.5574642E-19
   69.96900       -8.5317745E-19
   70.13050       -8.5531602E-19
   70.29200       -8.6180376E-19
   70.45350       -8.6939350E-19
   70.61500       -8.7400421E-19
   70.77650       -8.7330100E-19
   70.93800       -8.6813949E-19
   71.09950       -8.6196697E-19
   71.26100       -8.5859952E-19
   71.42250       -8.5982230E-19
   71.58400       -8.6434455E-19
   71.74550       -8.6873775E-19
   71.90700       -8.6973254E-19
   72.06850       -8.6637315E-19
   72.23000       -8.6066499E-19
   72.39150       -8.5630471E-19
   72.55300       -8.5634038E-19
   72.71450       -8.6124515E-19
   72.87600       -8.6863280E-19
   73.03750       -8.7475839E-19
   73.19900       -8.7682830E-19
   73.36050       -8.7466523E-19
   73.52200       -8.7070127E-19
   73.68350       -8.6833585E-19
   73.84500       -8.6972530E-19
   74.00650       -8.7441221E-19
   74.16800       -8.7964289E-19
   74.32950       -8.8214738E-19
   74.49100       -8.8021468E-19
   74.65250       -8.7473978E-19
   74.81400       -8.6860334E-19
   74.97550       -8.6481754E-19
   75.13700       -8.6464853E-19
   75.29850       -8.6690457E-19
   75.46000       -8.6881995E-19
   75.62150       -8.6792743E-19
   75.78300       -8.6369138E-19
   75.94450       -8.5785521E-19
   76.10600       -8.5331874E-19
   76.26750       -8.5231946E-19
   76.42900       -8.5509987E-19
   76.59050       -8.5987482E-19
   76.75200       -8.6405493E-19
   76.91350       -8.6588594E-19
   77.07500       -8.6544154E-19
   77.23650       -8.6438766E-19
   77.39800       -8.6472706E-19
   77.55950       -8.6740382E-19
   77.72100       -8.7167673E-19
   77.88250       -8.7562682E-19
   78.04400       -8.7741343E-19
   78.20550       -8.7643632E-19
   78.36700       -8.7367540E-19
   78.52850       -8.7103690E-19
   78.69000       -8.7016847E-19
   78.85150       -8.7150147E-19
   79.01300       -8.7410429E-19
   79.17450       -8.7638183E-19
   79.33600       -8.7713115E-19
   79.49750       -8.7625651E-19
   79.65900       -8.7472416E-19
   79.82050       -8.7383432E-19
   79.98200       -8.7432660E-19
   80.14350       -8.7588521E-19
   80.30500       -8.7734033E-19
   80.46650       -8.7742181E-19
   80.62800       -8.7557399E-19
   80.78950       -8.7232451E-19
   80.95100       -8.6898105E-19
   81.11250       -8.6685669E-19
   81.27400       -8.6652370E-19
   81.43550       -8.6755034E-19
   81.59700       -8.6885738E-19
   81.75850       -8.6944168E-19
   81.92000       -8.6900142E-19
   82.08150       -8.6808552E-19
   82.24300       -8.6769054E-19
   82.40450       -8.6858245E-19
   82.56600       -8.7077531E-19
   82.72750       -8.7350738E-19
   82.88900       -8.7570179E-19
   83.05050       -8.7659731E-19
   83.21200       -8.7615849E-19
   83.37350       -8.7503715E-19
   83.53500       -8.7415403E-19
   83.69650       -8.7417347E-19
   83.85800       -8.7516681E-19
   84.01950       -8.7662430E-19
   84.18100       -8.7777377E-19
   84.34250       -8.7800300E-19
   84.50400       -8.7716497E-19
   84.66550       -8.7562817E-19
   84.82700       -8.7408175E-19
   84.98850       -8.7319957E-19
   85.15000       -8.7331248E-19
   85.31150       -8.7423726E-19
   85.47300       -8.7535303E-19
   85.63450       -8.7592337E-19
   85.79600       -8.7552353E-19
   85.95750       -8.7433652E-19
   86.11900       -8.7312191E-19
   86.28050       -8.7283788E-19
   86.44200       -8.7409199E-19
   86.60350       -8.7672418E-19
   86.76500       -8.7978609E-19
   86.92650       -8.8198939E-19
   87.08800       -8.8240681E-19
   87.24950       -8.8103369E-19
   87.41100       -8.7883866E-19
   87.57250       -8.7723000E-19
   87.73400       -8.7721594E-19
   87.89550       -8.7876453E-19
   88.05700       -8.8077602E-19
   88.21850       -8.8173369E-19
   88.38000       -8.8067480E-19
   88.54150       -8.7788927E-19
   88.70300       -8.7486158E-19
   88.86450       -8.7342259E-19
   89.02600       -8.7459202E-19
   89.18750       -8.7785266E-19
   89.34900       -8.8135515E-19
   89.51050       -8.8298294E-19
   89.67200       -8.8163267E-19
   89.83350       -8.7790943E-19
   89.99500       -8.7376215E-19
   90.15650       -8.7127110E-19
   90.31800       -8.7134296E-19
   90.47950       -8.7315603E-19
   90.64100       -8.7473409E-19
   90.80250       -8.7428534E-19
   90.96400       -8.7144460E-19
   91.12550       -8.6759521E-19
   91.28700       -8.6505106E-19
   91.44850       -8.6561013E-19
   91.61000       -8.6940632E-19
   91.77150       -8.7478889E-19
   91.93300       -8.7931946E-19
   92.09450       -8.8126116E-19
   92.25600       -8.8062713E-19
   92.41750       -8.7912125E-19
   92.57900       -8.7899686E-19
   92.74050       -8.8156515E-19
   92.90200       -8.8630407E-19
   93.06350       -8.9115052E-19
   93.22500       -8.9380918E-19
   93.38650       -8.9324256E-19
   93.54800       -8.9037183E-19
   93.70950       -8.8749986E-19
   93.87100       -8.8679893E-19
   94.03250       -8.8883710E-19
   94.19400       -8.9214934E-19
   94.35550       -8.9417459E-19
   94.51700       -8.9299255E-19
   94.67850       -8.8869018E-19
   94.84000       -8.8341183E-19
   95.00150       -8.8001450E-19
   95.16300       -8.8019607E-19
   95.32450       -8.8336603E-19
   95.48600       -8.8704388E-19
   95.64750       -8.8852950E-19
   95.80900       -8.8672252E-19
   95.97050       -8.8285121E-19
   96.13200       -8.7961218E-19
   96.29350       -8.7931305E-19
   96.45500       -8.8228190E-19
   96.61650       -8.8661437E-19
   96.77800       -8.8941789E-19
   96.93950       -8.8870672E-19
   97.10100       -8.8469014E-19
   97.26250       -8.7963058E-19
   97.42400       -8.7639662E-19
   97.58550       -8.7666266E-19
   97.74700       -8.7989818E-19
   97.90850       -8.8376049E-19
   98.07000       -8.8560986E-19
   98.23150       -8.8417284E-19
   98.39300       -8.8032562E-19
   98.55450       -8.7652142E-19
   98.71600       -8.7523805E-19
   98.87750       -8.7742263E-19
   99.03900       -8.8189468E-19
   99.20050       -8.8609479E-19
   99.36200       -8.8770656E-19
   99.52350       -8.8613605E-19
   99.68500       -8.8290002E-19
   99.84650       -8.8065753E-19
   100.0080       -8.8149122E-19
   100.1695       -8.8554265E-19
   100.3310       -8.9089223E-19
   100.4925       -8.9476086E-19
   100.6540       -8.9525406E-19
   100.8155       -8.9251547E-19
   100.9770       -8.8855162E-19
   101.1385       -8.8587538E-19
   101.3000       -8.8588438E-19
   101.4615       -8.8803443E-19
   101.6230       -8.9030545E-19
   101.7845       -8.9059631E-19
   101.9460       -8.8809492E-19
   102.1075       -8.8375573E-19
   102.2690       -8.7963720E-19
   102.4305       -8.7758972E-19
   102.5920       -8.7816544E-19
   102.7535       -8.8039045E-19
   102.9150       -8.8247257E-19
   103.0765       -8.8293000E-19
   103.2380       -8.8144614E-19
   103.3995       -8.7898631E-19
   103.5610       -8.7718285E-19
   103.7225       -8.7739409E-19
   103.8840       -8.7997945E-19
   104.0455       -8.8414864E-19
   104.2070       -8.8843199E-19
   104.3685       -8.9148088E-19
   104.5300       -8.9276652E-19
   104.6915       -8.9279702E-19
   104.8530       -8.9274915E-19
   105.0145       -8.9372130E-19
   105.1760       -8.9601900E-19
   105.3375       -8.9889159E-19
   105.4990       -9.0088944E-19
   105.6605       -9.0067778E-19
   105.8220       -8.9784676E-19
   105.9835       -8.9324443E-19
   106.1450       -8.8860529E-19
   106.3065       -8.8564946E-19
   106.4680       -8.8516029E-19
   106.6295       -8.8656443E-19
   106.7910       -8.8828734E-19
   106.9525       -8.8870858E-19
   107.1140       -8.8717788E-19
   107.2755       -8.8447642E-19
   107.4370       -8.8240340E-19
   107.5985       -8.8268360E-19
   107.7600       -8.8583351E-19
   107.9215       -8.9071098E-19
   108.0830       -8.9510041E-19
   108.2445       -8.9703312E-19
   108.4060       -8.9604888E-19
   108.5675       -8.9356920E-19
   108.7290       -8.9206476E-19
   108.8905       -8.9346942E-19
   109.0520       -8.9783611E-19
   109.2135       -9.0314805E-19
   109.3750       -9.0648966E-19
   109.5365       -9.0588282E-19
   109.6980       -9.0160691E-19
   109.8595       -8.9609903E-19
   110.0210       -8.9243379E-19
   110.1825       -8.9233473E-19
   110.3440       -8.9501232E-19
   110.5055       -8.9763810E-19
   110.6670       -8.9721438E-19
   110.8285       -8.9265072E-19
   110.9900       -8.8566787E-19
   111.1515       -8.7985444E-19
   111.3130       -8.7841308E-19
   111.4745       -8.8203106E-19
   111.6360       -8.8830802E-19
   111.7975       -8.9319314E-19
   111.9590       -8.9357509E-19
   112.1205       -8.8936536E-19
   112.2820       -8.8365895E-19
   112.4435       -8.8077520E-19
   112.6050       -8.8338402E-19
   112.7665       -8.9060158E-19
   112.9280       -8.9838432E-19
   113.0895       -9.0207789E-19
   113.2510       -8.9950898E-19
   113.4125       -8.9255456E-19
   113.5740       -8.8606181E-19
   113.7355       -8.8472467E-19
   113.8970       -8.8992598E-19
   114.0585       -8.9866349E-19
   114.2200       -9.0537244E-19
   114.3815       -9.0553788E-19
   114.5430       -8.9874032E-19
   114.7045       -8.8908154E-19
   114.8660       -8.8260947E-19
   115.0275       -8.8338567E-19
   115.1890       -8.9078336E-19
   115.3505       -8.9984388E-19
   115.5120       -9.0450939E-19
   115.6735       -9.0164114E-19
   115.8350       -8.9315995E-19
   115.9965       -8.8486198E-19
   116.1580       -8.8263997E-19
   116.3195       -8.8856403E-19
   116.4810       -8.9940713E-19
   116.6425       -9.0862389E-19
   116.8040       -9.1052971E-19
   116.9655       -9.0397130E-19
   117.1270       -8.9308912E-19
   117.2885       -8.8465116E-19
   117.4500       -8.8367084E-19
   117.6115       -8.9015646E-19
   117.7730       -8.9911865E-19
   117.9345       -9.0385591E-19
   118.0960       -9.0040946E-19
   118.2575       -8.9026999E-19
   118.4190       -8.7953008E-19
   118.5805       -8.7498224E-19
   118.7420       -8.7967732E-19