  -27.90000        4.5710592E-18
  -27.73850        4.5703991E-18
  -27.57700        4.5693246E-18
  -27.41550        4.5681256E-18
  -27.25400        4.5669419E-18
  -27.09250        4.5657247E-18
  -26.93100        4.5643690E-18
  -26.76950        4.5628925E-18
  -26.60800        4.5614697E-18
  -26.44650        4.5602959E-18
  -26.28500        4.5593984E-18
  -26.12350        4.5585799E-18
  -25.96200        4.5575675E-18
  -25.80050        4.5562452E-18
  -25.63900        4.5547683E-18
  -25.47750        4.5534436E-18
  -25.31600        4.5524787E-18
  -25.15450        4.5517975E-18
  -24.99300        4.5511064E-18
  -24.83150        4.5501386E-18
  -24.67000        4.5488784E-18
  -24.50850        4.5475743E-18
  -24.34700        4.5465283E-18
  -24.18550        4.5458422E-18
  -24.02400        4.5453438E-18
  -23.86250        4.5447358E-18
  -23.70100        4.5438330E-18
  -23.53950        4.5426960E-18
  -23.37800        4.5415541E-18
  -23.21650        4.5406053E-18
  -23.05500        4.5398741E-18
  -22.89350        4.5392351E-18
  -22.73200        4.5385614E-18
  -22.57050        4.5378388E-18
  -22.40900        4.5371374E-18
  -22.24750        4.5364926E-18
  -22.08600        4.5358246E-18
  -21.92450        4.5350049E-18
  -21.76300        4.5340081E-18
  -21.60150        4.5329919E-18
  -21.44000        4.5322074E-18
  -21.27850        4.5317876E-18
  -21.11700        4.5315969E-18
  -20.95550        4.5312933E-18
  -20.79400        4.5305716E-18
  -20.63250        4.5294057E-18
  -20.47100        4.5280789E-18
  -20.30950        4.5269734E-18
  -20.14800        4.5262785E-18
  -19.98650        4.5258637E-18
  -19.82500        4.5254137E-18
  -19.66350        4.5247115E-18
  -19.50200        4.5238239E-18
  -19.34050        4.5230381E-18
  -19.17900        4.5226005E-18
  -19.01750        4.5224971E-18
  -18.85600        4.5224479E-18
  -18.69450        4.5221191E-18
  -18.53300        4.5213680E-18
  -18.37150        4.5203224E-18
  -18.21000        4.5192450E-18
  -18.04850        4.5183149E-18
  -17.88700        4.5175179E-18
  -17.72550        4.5167217E-18
  -17.56400        4.5158482E-18
  -17.40250        4.5149726E-18
  -17.24100        4.5142604E-18
  -17.07950        4.5138088E-18
  -16.91800        4.5135544E-18
  -16.75650        4.5133286E-18
  -16.59500        4.5130019E-18
  -16.43350        4.5125759E-18
  -16.27200        4.5121333E-18
  -16.11050        4.5117148E-18
  -15.94900        4.5112450E-18
  -15.78750        4.5106039E-18
  -15.62600        4.5097771E-18
  -15.46450        4.5089243E-18
  -15.30300        4.5082807E-18
  -15.14150        4.5079428E-18
  -14.98000        4.5077361E-18
  -14.81850        4.5073080E-18
  -14.65700        4.5064084E-18
  -14.49550        4.5051333E-18
  -14.33400        4.5039112E-18
  -14.17250        4.5032130E-18
  -14.01100        4.5032002E-18
  -13.84950        4.5035931E-18
  -13.68800        4.5038801E-18
  -13.52650        4.5036990E-18
  -13.36500        4.5031001E-18
  -13.20350        4.5024868E-18
  -13.04200        4.5022816E-18
  -12.88050        4.5025964E-18
  -12.71900        4.5031435E-18
  -12.55750        4.5034645E-18
  -12.39600        4.5032507E-18
  -12.23450        4.5025347E-18
  -12.07300        4.5016021E-18
  -11.91150        4.5007460E-18
  -11.75000        4.5000668E-18
  -11.58850        4.4994564E-18
  -11.42700        4.4987384E-18
  -11.26550        4.4978082E-18
  -11.10400        4.4966709E-18
  -10.94250        4.4953809E-18
  -10.78100        4.4939867E-18
  -10.61950        4.4925441E-18
  -10.45800        4.4911598E-18
  -10.29650        4.4899872E-18
  -10.13500        4.4891344E-18
  -9.973500        4.4885554E-18
  -9.812000        4.4880417E-18
  -9.650500        4.4873597E-18
  -9.489000        4.4864419E-18
  -9.327500        4.4854555E-18
  -9.166000        4.4846718E-18
  -9.004500        4.4842234E-18
  -8.843000        4.4839596E-18
  -8.681500        4.4835518E-18
  -8.520000        4.4827804E-18
  -8.358500        4.4817618E-18
  -8.197000        4.4809081E-18
  -8.035500        4.4806281E-18
  -7.874000        4.4809933E-18
  -7.712500        4.4816563E-18
  -7.551000        4.4821071E-18
  -7.389500        4.4820703E-18
  -7.228000        4.4817270E-18
  -7.066500        4.4815773E-18
  -6.905000        4.4820413E-18
  -6.743500        4.4831212E-18
  -6.582000        4.4843889E-18
  -6.420500        4.4853066E-18
  -6.259000        4.4856168E-18
  -6.097500        4.4854990E-18
  -5.936000        4.4853873E-18
  -5.774500        4.4856177E-18
  -5.613000        4.4861789E-18
  -5.451500        4.4867534E-18
  -5.290000        4.4869631E-18
  -5.128500        4.4866214E-18
  -4.967000        4.4858116E-18
  -4.805500        4.4847735E-18
  -4.644000        4.4837329E-18
  -4.482500        4.4828110E-18
  -4.321000        4.4820347E-18
  -4.159500        4.4813833E-18
  -3.998000        4.4807964E-18
  -3.836500        4.4801545E-18
  -3.675000        4.4793079E-18
  -3.513500        4.4781809E-18
  -3.352000        4.4768814E-18
  -3.190500        4.4756874E-18
  -3.029000        4.4748742E-18
  -2.867500        4.4744987E-18
  -2.706000        4.4743072E-18
  -2.544500        4.4738932E-18
  -2.383000        4.4729941E-18
  -2.221500        4.4717090E-18
  -2.060000        4.4704401E-18
  -1.898500        4.4695972E-18
  -1.737000        4.4692821E-18
  -1.575500        4.4692134E-18
  -1.414000        4.4689574E-18
  -1.252500        4.4682758E-18
  -1.091000        4.4673084E-18
 -0.9295000        4.4664469E-18
 -0.7680000        4.4659986E-18
 -0.6065000        4.4659283E-18
 -0.4450000        4.4658774E-18
 -0.2835000        4.4654365E-18
 -0.1220000        4.4644393E-18
  3.9500002E-02    4.4630563E-18
  0.2010000        4.4616327E-18
  0.3625000        4.4604221E-18
  0.5240000        4.4594436E-18
  0.6855000        4.4585453E-18
  0.8470000        4.4575940E-18
   1.008500        4.4566093E-18
   1.170000        4.4557515E-18
   1.331500        4.4551865E-18
   1.493000        4.4549702E-18
   1.654500        4.4550422E-18
   1.816000        4.4552969E-18
   1.977500        4.4556510E-18
   2.139000        4.4560393E-18
   2.300500        4.4563793E-18
   2.462000        4.4565791E-18
   2.623500        4.4566068E-18
   2.785000        4.4565613E-18
   2.946500        4.4566423E-18
   3.108000        4.4570080E-18
   3.269500        4.4576164E-18
   3.431000        4.4582012E-18
   3.592500        4.4584373E-18
   3.754000        4.4581896E-18
   3.915500        4.4576486E-18
   4.077000        4.4572234E-18
   4.238500        4.4572499E-18
   4.400000        4.4577284E-18
   4.561500        4.4583141E-18
   4.723000        4.4585742E-18
   4.884500        4.4583215E-18
   5.046000        4.4577665E-18
   5.207500        4.4573657E-18
   5.369000        4.4574766E-18
   5.530500        4.4580883E-18
   5.692000        4.4588211E-18
   5.853500        4.4591934E-18
   6.015000        4.4589448E-18
   6.176500        4.4581838E-18
   6.338000        4.4572706E-18
   6.499500        4.4565406E-18
   6.661000        4.4560869E-18
   6.822500        4.4557403E-18
   6.984000        4.4552316E-18
   7.145500        4.4543932E-18
   7.307000        4.4532625E-18
   7.468500        4.4520432E-18
   7.630000        4.4509935E-18
   7.791500        4.4503173E-18
   7.953000        4.4501002E-18
   8.114500        4.4502946E-18
   8.276000        4.4507297E-18
   8.437500        4.4511846E-18
   8.599000        4.4514857E-18
   8.760500        4.4516139E-18
   8.922000        4.4517297E-18
   9.083500        4.4520631E-18
   9.245000        4.4527240E-18
   9.406500        4.4535570E-18
   9.568000        4.4541881E-18
   9.729500        4.4542654E-18
   9.891000        4.4537294E-18
   10.05250        4.4529010E-18
   10.21400        4.4522761E-18
   10.37550        4.4521632E-18
   10.53700        4.4524291E-18
   10.69850        4.4525677E-18
   10.86000        4.4520565E-18
   11.02150        4.4507379E-18
   11.18300        4.4489359E-18
   11.34450        4.4472108E-18
   11.50600        4.4459424E-18
   11.66750        4.4450618E-18
   11.82900        4.4441379E-18
   11.99050        4.4427494E-18
   12.15200        4.4408424E-18
   12.31350        4.4387984E-18
   12.47500        4.4371689E-18
   12.63650        4.4362821E-18
   12.79800        4.4360261E-18
   12.95950        4.4359517E-18
   13.12100        4.4356001E-18
   13.28250        4.4348048E-18
   13.44400        4.4337708E-18
   13.60550        4.4329031E-18
   13.76700        4.4325387E-18
   13.92850        4.4327596E-18
   14.09000        4.4333853E-18
   14.25150        4.4341120E-18
   14.41300        4.4346910E-18
   14.57450        4.4350447E-18
   14.73600        4.4352850E-18
   14.89750        4.4356402E-18
   15.05900        4.4363193E-18
   15.22050        4.4373591E-18
   15.38200        4.4385399E-18
   15.54350        4.4394403E-18
   15.70500        4.4396492E-18
   15.86650        4.4390288E-18
   16.02800        4.4378401E-18
   16.18950        4.4366209E-18
   16.35100        4.4358416E-18
   16.51250        4.4355840E-18
   16.67400        4.4354740E-18
   16.83550        4.4349557E-18
   16.99700        4.4337286E-18
   17.15850        4.4320255E-18
   17.32000        4.4305063E-18
   17.48150        4.4298165E-18
   17.64300        4.4301233E-18
   17.80450        4.4309824E-18
   17.96600        4.4316305E-18
   18.12750        4.4315039E-18
   18.28900        4.4305977E-18
   18.45050        4.4294124E-18
   18.61200        4.4285608E-18
   18.77350        4.4283296E-18
   18.93500        4.4285228E-18
   19.09650        4.4286671E-18
   19.25800        4.4284020E-18
   19.41950        4.4277535E-18
   19.58100        4.4271137E-18
   19.74250        4.4269639E-18
   19.90400        4.4275599E-18
   20.06550        4.4287932E-18
   20.22700        4.4302809E-18
   20.38850        4.4315945E-18
   20.55000        4.4324610E-18
   20.71150        4.4328510E-18
   20.87300        4.4329362E-18
   21.03450        4.4329709E-18
   21.19600        4.4331574E-18
   21.35750        4.4335417E-18
   21.51900        4.4339772E-18
   21.68050        4.4342013E-18
   21.84200        4.4339879E-18
   22.00350        4.4333084E-18
   22.16500        4.4323795E-18
   22.32650        4.4315395E-18
   22.48800        4.4310113E-18
   22.64950        4.4307106E-18
   22.81100        4.4302636E-18
   22.97250        4.4292519E-18
   23.13400        4.4275446E-18
   23.29550        4.4254535E-18
   23.45700        4.4235915E-18
   23.61850        4.4224967E-18
   23.78000        4.4223028E-18
   23.94150        4.4226758E-18
   24.10300        4.4230836E-18
   24.26450        4.4231854E-18
   24.42600        4.4230596E-18
   24.58750        4.4231072E-18
   24.74900        4.4237073E-18
   24.91050        4.4248848E-18
   25.07200        4.4262282E-18
   25.23350        4.4271232E-18
   25.39500        4.4271157E-18
   25.55650        4.4261574E-18
   25.71800        4.4245883E-18
   25.87950        4.4228934E-18
   26.04100        4.4214276E-18
   26.20250        4.4202733E-18
   26.36400        4.4192898E-18
   26.52550        4.4182827E-18
   26.68700        4.4171680E-18
   26.84850        4.4160514E-18
   27.01000        4.4151911E-18
   27.17150        4.4148784E-18
   27.33300        4.4152804E-18
   27.49450        4.4163144E-18
   27.65600        4.4176275E-18
   27.81750        4.4187178E-18
   27.97900        4.4191706E-18
   28.14050        4.4188985E-18
   28.30200        4.4182165E-18
   28.46350        4.4176706E-18
   28.62500        4.4176929E-18
   28.78650        4.4183129E-18
   28.94800        4.4191256E-18
   29.10950        4.4195809E-18
   29.27100        4.4193865E-18
   29.43250        4.4187389E-18
   29.59400        4.4181979E-18
   29.75550        4.4182798E-18
   29.91700        4.4190569E-18
   30.07850        4.4200648E-18
   30.24000        4.4205814E-18
   30.40150        4.4201037E-18
   30.56300        4.4186686E-18
   30.72450        4.4168181E-18
   30.88600        4.4152370E-18
   31.04750        4.4143234E-18
   31.20900        4.4139892E-18
   31.37050        4.4137890E-18
   31.53200        4.4132658E-18
   31.69350        4.4122550E-18
   31.85500        4.4109725E-18
   32.01650        4.4098512E-18
   32.17800        4.4092689E-18
   32.33950        4.4093305E-18
   32.50100        4.4098297E-18
   32.66250        4.4103897E-18
   32.82400        4.4106759E-18
   32.98550        4.4105804E-18
   33.14700        4.4102652E-18
   33.30850        4.4100650E-18
   33.47000        4.4102896E-18
   33.63150        4.4110291E-18
   33.79300        4.4120846E-18
   33.95450        4.4130665E-18
   34.11600        4.4136269E-18
   34.27750        4.4136782E-18
   34.43900        4.4134408E-18
   34.60050        4.4132704E-18
   34.76200        4.4133659E-18
   34.92350        4.4135764E-18
   35.08500        4.4134540E-18
   35.24650        4.4125503E-18
   35.40800        4.4107537E-18
   35.56950        4.4084227E-18
   35.73100        4.4062009E-18
   35.89250        4.4046334E-18
   36.05400        4.4038525E-18
   36.21550        4.4035646E-18
   36.37700        4.4033380E-18
   36.53850        4.4029794E-18
   36.70000        4.4027056E-18
   36.86150        4.4029815E-18
   37.02300        4.4041470E-18
   37.18450        4.4061124E-18
   37.34600        4.4083383E-18
   37.50750        4.4101234E-18
   37.66900        4.4109869E-18
   37.83050        4.4108988E-18
   37.99200        4.4102230E-18
   38.15350        4.4094314E-18
   38.31500        4.4088019E-18
   38.47650        4.4082837E-18
   38.63800        4.4075926E-18
   38.79950        4.4064412E-18
   38.96100        4.4047566E-18
   39.12250        4.4027627E-18
   39.28400        4.4008949E-18
   39.44550        4.3996012E-18
   39.60700        4.3991293E-18
   39.76850        4.3994064E-18
   39.93000        4.4000744E-18
   40.09150        4.4006823E-18
   40.25300        4.4009379E-18
   40.41450        4.4008685E-18
   40.57600        4.4007957E-18
   40.73750        4.4011042E-18
   40.89900        4.4019541E-18
   41.06050        4.4031308E-18
   41.22200        4.4041420E-18
   41.38350        4.4045233E-18
   41.54500        4.4041404E-18
   41.70650        4.4032805E-18
   41.86800        4.4024558E-18
   42.02950        4.4020509E-18
   42.19100        4.4020621E-18
   42.35250        4.4021204E-18
   42.51400        4.4017630E-18
   42.67550        4.4007609E-18
   42.83700        4.3992724E-18
   42.99850        4.3977181E-18
   43.16000        4.3965001E-18
   43.32150        4.3957619E-18
   43.48300        4.3953627E-18
   43.64450        4.3950521E-18
   43.80600        4.3946964E-18
   43.96750        4.3943879E-18
   44.12900        4.3943714E-18
   44.29050        4.3948586E-18
   44.45200        4.3958739E-18
   44.61350        4.3972396E-18
   44.77500        4.3986797E-18
   44.93650        4.3999648E-18
   45.09800        4.4010000E-18
   45.25950        4.4018230E-18
   45.42100        4.4025385E-18
   45.58250        4.4032309E-18
   45.74400        4.4039088E-18
   45.90550        4.4044932E-18
   46.06700        4.4048571E-18
   46.22850        4.4049001E-18
   46.39000        4.4046239E-18
   46.55150        4.4041573E-18
   46.71300        4.4036962E-18
   46.87450        4.4033760E-18
   47.03600        4.4031486E-18
   47.19750        4.4027619E-18
   47.35900        4.4018888E-18
   47.52050        4.4003374E-18
   47.68200        4.3982120E-18
   47.84350        4.3958781E-18
   48.00500        4.3937489E-18
   48.16650        4.3920222E-18
   48.32800        4.3905713E-18
   48.48950        4.3890840E-18
   48.65100        4.3873627E-18
   48.81250        4.3855652E-18
   48.97400        4.3841979E-18
   49.13550        4.3838335E-18
   49.29700        4.3847388E-18
   49.45850        4.3866778E-18
   49.62000        4.3890257E-18
   49.78150        4.3911358E-18
   49.94300        4.3926901E-18
   50.10450        4.3938109E-18
   50.26600        4.3948639E-18
   50.42750        4.3961275E-18
   50.58900        4.3975539E-18
   50.75050        4.3987980E-18
   50.91200        4.3994560E-18
   51.07350        4.3993481E-18
   51.23500        4.3986437E-18
   51.39650        4.3977665E-18
   51.55800        4.3971577E-18
   51.71950        4.3970452E-18
   51.88100        4.3973558E-18
   52.04250        4.3977847E-18
   52.20400        4.3979775E-18
   52.36550        4.3977136E-18
   52.52700        4.3970163E-18
   52.68850        4.3961341E-18
   52.85000        4.3954004E-18
   53.01150        4.3950410E-18
   53.17300        4.3950348E-18
   53.33450        4.3951270E-18
   53.49600        4.3950017E-18
   53.65750        4.3945112E-18
   53.81900        4.3937882E-18
   53.98050        4.3931591E-18
   54.14200        4.3928878E-18
   54.30350        4.3929420E-18
   54.46500        4.3929726E-18
   54.62650        4.3925367E-18
   54.78800        4.3914196E-18
   54.94950        4.3898062E-18
   55.11100        4.3881613E-18
   55.27250        4.3869061E-18
   55.43400        4.3861351E-18
   55.59550        4.3855954E-18
   55.75700        4.3849510E-18
   55.91850        4.3841139E-18
   56.08000        4.3833761E-18
   56.24150        4.3832284E-18
   56.40300        4.3840055E-18
   56.56450        4.3856190E-18
   56.72600        4.3875901E-18
   56.88750        4.3893450E-18
   57.04900        4.3905626E-18
   57.21050        4.3913220E-18
   57.37200        4.3919651E-18
   57.53350        4.3927923E-18
   57.69500        4.3938163E-18
   57.85650        4.3947399E-18
   58.01800        4.3951510E-18
   58.17950        4.3947953E-18
   58.34100        4.3937423E-18
   58.50250        4.3923712E-18
   58.66400        4.3911851E-18
   58.82550        4.3905672E-18
   58.98700        4.3905932E-18
   59.14850        4.3909989E-18
   59.31000        4.3913178E-18
   59.47150        4.3911495E-18
   59.63300        4.3904013E-18
   59.79450        4.3893661E-18
   59.95600        4.3885542E-18
   60.11750        4.3883582E-18
   60.27900        4.3887635E-18
   60.44050        4.3893098E-18
   60.60200        4.3893719E-18
   60.76350        4.3885902E-18
   60.92500        4.3871534E-18
   61.08650        4.3857153E-18
   61.24800        4.3849742E-18
   61.40950        4.3852033E-18
   61.57100        4.3860673E-18
   61.73250        4.3868601E-18
   61.89400        4.3869962E-18
   62.05550        4.3864077E-18
   62.21700        4.3855689E-18
   62.37850        4.3851466E-18
   62.54000        4.3855313E-18
   62.70150        4.3865719E-18
   62.86300        4.3876906E-18
   63.02450        4.3882672E-18
   63.18600        4.3880223E-18
   63.34750        4.3871596E-18
   63.50900        4.3861864E-18
   63.67050        4.3855780E-18
   63.83200        4.3854998E-18
   63.99350        4.3857480E-18
   64.15500        4.3859180E-18
   64.31650        4.3856773E-18
   64.47800        4.3849709E-18
   64.63950        4.3840544E-18
   64.80100        4.3833364E-18
   64.96250        4.3831283E-18
   65.12400        4.3834522E-18
   65.28550        4.3840175E-18
   65.44700        4.3843960E-18
   65.60850        4.3842909E-18
   65.77000        4.3837442E-18
   65.93150        4.3831333E-18
   66.09300        4.3829414E-18
   66.25450        4.3834369E-18
   66.41600        4.3844721E-18
   66.57750        4.3855449E-18
   66.73900        4.3861144E-18
   66.90050        4.3859527E-18
   67.06200        4.3852922E-18
   67.22350        4.3846532E-18
   67.38500        4.3844576E-18
   67.54650        4.3847058E-18
   67.70800        4.3849589E-18
   67.86950        4.3846479E-18
   68.03100        4.3835072E-18
   68.19250        4.3818222E-18
   68.35400        4.3802890E-18
   68.51550        4.3795776E-18
   68.67700        4.3798866E-18
   68.83850        4.3808035E-18
   69.00000        4.3815757E-18
   69.16150        4.3816076E-18
   69.32300        4.3808428E-18
   69.48450        4.3797733E-18
   69.64600        4.3790805E-18
   69.80750        4.3791574E-18
   69.96900        4.3798361E-18
   70.13050        4.3804958E-18
   70.29200        4.3804710E-18
   70.45350        4.3794887E-18
   70.61500        4.3778604E-18
   70.77650        4.3763090E-18
   70.93800        4.3755439E-18
   71.09950        4.3758512E-18
   71.26100        4.3769418E-18
   71.42250        4.3781334E-18
   71.58400        4.3787625E-18
   71.74550        4.3785805E-18
   71.90700        4.3779051E-18
   72.06850        4.3774253E-18
   72.23000        4.3777674E-18
   72.39150        4.3790693E-18
   72.55300        4.3808482E-18
   72.71450        4.3822523E-18
   72.87600        4.3825836E-18
   73.03750        4.3817403E-18
   73.19900        4.3803027E-18
   73.36050        4.3791703E-18
   73.52200        4.3789755E-18
   73.68350        4.3796624E-18
   73.84500        4.3805248E-18
   74.00650        4.3806927E-18
   74.16800        4.3797468E-18
   74.32950        4.3780283E-18
   74.49100        4.3764315E-18
   74.65250        4.3758181E-18
   74.81400        4.3764691E-18
   74.97550        4.3779535E-18
   75.13700        4.3794805E-18
   75.29850        4.3804801E-18
   75.46000        4.3809834E-18
   75.62150        4.3815600E-18
   75.78300        4.3828682E-18
   75.94450        4.3851562E-18
   76.10600        4.3880604E-18
   76.26750        4.3908211E-18
   76.42900        4.3927538E-18
   76.59050        4.3936298E-18
   76.75200        4.3937365E-18
   76.91350        4.3935996E-18
   77.07500        4.3935847E-18
   77.23650        4.3936447E-18
   77.39800        4.3933647E-18
   77.55950        4.3922530E-18
   77.72100        4.3900907E-18
   77.88250        4.3871066E-18
   78.04400        4.3838819E-18
   78.20550        4.3810248E-18
   78.36700        4.3788253E-18
   78.52850        4.3770982E-18
   78.69000        4.3753214E-18
   78.85150        4.3730136E-18
   79.01300        4.3701081E-18
   79.17450        4.3670897E-18
   79.33600        4.3647674E-18
   79.49750        4.3637979E-18
   79.65900        4.3642599E-18
   79.82050        4.3655760E-18
   79.98200        4.3668668E-18
   80.14350        4.3675331E-18
   80.30500        4.3676596E-18
   80.46650        4.3679541E-18
   80.62800        4.3692342E-18
   80.78950        4.3718137E-18
   80.95100        4.3752134E-18
   81.11250        4.3784196E-18
   81.27400        4.3805136E-18
   81.43550        4.3812593E-18
   81.59700        4.3812279E-18
   81.75850        4.3813921E-18
   81.92000        4.3824645E-18
   82.08150        4.3844431E-18
   82.24300        4.3866505E-18
   82.40450        4.3882155E-18
   82.56600        4.3886498E-18
   82.72750        4.3881452E-18
   82.88900        4.3874214E-18
   83.05050        4.3872638E-18
   83.21200        4.3880513E-18
   83.37350        4.3895659E-18
   83.53500        4.3911673E-18
   83.69650        4.3921909E-18
   83.85800        4.3923303E-18
   84.01950        4.3917806E-18
   84.18100        4.3910837E-18
   84.34250        4.3907711E-18
   84.50400        4.3910217E-18
   84.66550        4.3915325E-18
   84.82700        4.3916839E-18
   84.98850        4.3909113E-18
   85.15000        4.3890654E-18
   85.31150        4.3865222E-18
   85.47300        4.3839629E-18
   85.63450        4.3819537E-18
   85.79600        4.3805938E-18
   85.95750        4.3794850E-18
   86.11900        4.3780383E-18
   86.28050        4.3759219E-18
   86.44200        4.3733275E-18
   86.60350        4.3708736E-18
   86.76500        4.3692073E-18
   86.92650        4.3685807E-18
   87.08800        4.3687097E-18
   87.24950        4.3690009E-18
   87.41100        4.3689844E-18
   87.57250        4.3686460E-18
   87.73400        4.3684264E-18
   87.89550        4.3688996E-18
   88.05700        4.3703682E-18
   88.21850        4.3726599E-18
   88.38000        4.3752337E-18
   88.54150        4.3775233E-18
   88.70300        4.3792646E-18
   88.86450        4.3805951E-18
   89.02600        4.3818855E-18
   89.18750        4.3834294E-18
   89.34900        4.3852021E-18
   89.51050        4.3868362E-18
   89.67200        4.3878246E-18
   89.83350        4.3878040E-18
   89.99500        4.3867646E-18
   90.15650        4.3850532E-18
   90.31800        4.3831887E-18
   90.47950        4.3815935E-18
   90.64100        4.3804007E-18
   90.80250        4.3794420E-18
   90.96400        4.3784163E-18
   91.12550        4.3771445E-18
   91.28700        4.3757358E-18
   91.44850        4.3745625E-18
   91.61000        4.3740442E-18
   91.77150        4.3743867E-18
   91.93300        4.3754409E-18
   92.09450        4.3767938E-18
   92.25600        4.3780283E-18
   92.41750        4.3789937E-18
   92.57900        4.3798961E-18
   92.74050        4.3811505E-18
   92.90200        4.3830775E-18
   93.06350        4.3856640E-18
   93.22500        4.3885311E-18
   93.38650        4.3911305E-18
   93.54800        4.3930400E-18
   93.70950        4.3941381E-18
   93.87100        4.3945732E-18
   94.03250        4.3945562E-18
   94.19400        4.3941468E-18
   94.35550        4.3931877E-18
   94.51700        4.3914220E-18
   94.67850        4.3887122E-18
   94.84000        4.3852083E-18
   95.00150        4.3813437E-18
   95.16300        4.3776627E-18
   95.32450        4.3746022E-18
   95.48600        4.3723473E-18
   95.64750        4.3708488E-18
   95.80900        4.3699480E-18
   95.97050        4.3695138E-18
   96.13200        4.3695113E-18
   96.29350        4.3699708E-18
   96.45500        4.3709080E-18
   96.61650        4.3722492E-18
   96.77800        4.3738196E-18
   96.93950        4.3753925E-18
   97.10100        4.3767570E-18
   97.26250        4.3777860E-18
   97.42400        4.3784676E-18
   97.58550        4.3788948E-18
   97.74700        4.3792191E-18
   97.90850        4.3795756E-18
   98.07000        4.3800152E-18
   98.23150        4.3804813E-18
   98.39300        4.3808544E-18
   98.55450        4.3810401E-18
   98.71600        4.3810405E-18
   98.87750        4.3809566E-18
   99.03900        4.3809156E-18
   99.20050        4.3809834E-18
   99.36200        4.3811356E-18
   99.52350        4.3812969E-18
   99.68500        4.3814297E-18
   99.84650        4.3815906E-18
   100.0080        4.3819049E-18
   100.1695        4.3824827E-18
   100.3310        4.3833488E-18
   100.4925        4.3844336E-18
   100.6540        4.3856252E-18
   100.8155        4.3868233E-18
   100.9770        4.3879404E-18
   101.1385        4.3888607E-18
   101.3000        4.3894095E-18
   101.4615        4.3893913E-18
   101.6230        4.3886861E-18
   101.7845        4.3873188E-18
   101.9460        4.3854544E-18
   102.1075        4.3833016E-18
   102.2690        4.3810128E-18
   102.4305        4.3786508E-18
   102.5920        4.3762545E-18
   102.7535        4.3739243E-18
   102.9150        4.3718555E-18
   103.0765        4.3702698E-18
   103.2380        4.3692995E-18
   103.3995        4.3689095E-18
   103.5610        4.3689351E-18
   103.7225        4.3692003E-18
   103.8840        4.3696184E-18
   104.0455        4.3702069E-18
   104.2070        4.3710172E-18
   104.3685        4.3720466E-18
   104.5300        4.3732224E-18
   104.6915        4.3744504E-18
   104.8530        4.3756874E-18
   105.0145        4.3769687E-18
   105.1760        4.3783633E-18
   105.3375        4.3798978E-18
   105.4990        4.3815203E-18
   105.6605        4.3831110E-18
   105.8220        4.3845428E-18
   105.9835        4.3857331E-18
   106.1450        4.3866418E-18
   106.3065        4.3872477E-18
   106.4680        4.3875252E-18
   106.6295        4.3874495E-18
   106.7910        4.3870219E-18
   106.9525        4.3862824E-18
   107.1140        4.3852914E-18
   107.2755        4.3841135E-18
   107.4370        4.3828140E-18
   107.5985        4.3814826E-18
   107.7600        4.3802435E-18
   107.9215        4.3792364E-18
   108.0830        4.3785577E-18
   108.2445        4.3782087E-18
   108.4060        4.3780924E-18
   108.5675        4.3780862E-18
   108.7290        4.3781313E-18
   108.8905        4.3782765E-18
   109.0520        4.3786272E-18
   109.2135        4.3792377E-18
   109.3750        4.3800206E-18
   109.5365        4.3807733E-18
   109.6980        4.3812982E-18
   109.8595        4.3815281E-18
   110.0210        4.3815707E-18
   110.1825        4.3816142E-18
   110.3440        4.3817800E-18
   110.5055        4.3820224E-18
   110.6670        4.3821725E-18
   110.8285        4.3820811E-18
   110.9900        4.3817593E-18
   111.1515        4.3813937E-18
   111.3130        4.3812101E-18
   111.4745        4.3813094E-18
   111.6360        4.3815947E-18
   111.7975        4.3818623E-18
   111.9590        4.3819823E-18
   112.1205        4.3820182E-18
   112.2820        4.3821924E-18
   112.4435        4.3827110E-18
   112.6050        4.3835849E-18
   112.7665        4.3845916E-18
   112.9280        4.3854056E-18
   113.0895        4.3858129E-18
   113.2510        4.3858357E-18
   113.4125        4.3856851E-18
   113.5740        4.3855747E-18
   113.7355        4.3855296E-18
   113.8970        4.3853460E-18
   114.0585        4.3847149E-18
   114.2200        4.3834348E-18
   114.3815        4.3815637E-18
   114.5430        4.3794242E-18
   114.7045        4.3774448E-18
   114.8660        4.3759463E-18
   115.0275        4.3749889E-18
   115.1890        4.3743759E-18
   115.3505        4.3738089E-18
   115.5120        4.3731062E-18
   115.6735        4.3723609E-18
   115.8350        4.3719213E-18
   115.9965        4.3722062E-18
   116.1580        4.3734300E-18
   116.3195        4.3754227E-18
   116.4810        4.3776722E-18
   116.6425        4.3795917E-18
   116.8040        4.3808610E-18
   116.9655        4.3816100E-18
   117.1270        4.3822954E-18
   117.2885        4.3833380E-18
   117.4500        4.3847657E-18
   117.6115        4.3861260E-18
   117.7730        4.3867712E-18
   117.9345        4.3863221E-18
   118.0960        4.3849820E-18
   118.2575        4.3834588E-18
   118.4190        4.3825212E-18
   118.5805        4.3825104E-18
   118.7420        4.3831453E-18