  -27.90000        1.0018096E-17
  -27.73850        1.0046577E-17
  -27.57700        1.0088532E-17
  -27.41550        1.0124004E-17
  -27.25400        1.0140468E-17
  -27.09250        1.0140222E-17
  -26.93100        1.0138105E-17
  -26.76950        1.0151094E-17
  -26.60800        1.0186647E-17
  -26.44650        1.0237373E-17
  -26.28500        1.0285498E-17
  -26.12350        1.0314190E-17
  -25.96200        1.0318358E-17
  -25.80050        1.0307925E-17
  -25.63900        1.0301472E-17
  -25.47750        1.0314383E-17
  -25.31600        1.0349171E-17
  -25.15450        1.0394176E-17
  -24.99300        1.0431373E-17
  -24.83150        1.0448144E-17
  -24.67000        1.0445365E-17
  -24.50850        1.0436626E-17
  -24.34700        1.0439200E-17
  -24.18550        1.0462721E-17
  -24.02400        1.0502955E-17
  -23.86250        1.0544647E-17
  -23.70100        1.0571528E-17
  -23.53950        1.0576900E-17
  -23.37800        1.0567932E-17
  -23.21650        1.0560913E-17
  -23.05500        1.0570621E-17
  -22.89350        1.0600741E-17
  -22.73200        1.0641541E-17
  -22.57050        1.0676253E-17
  -22.40900        1.0691953E-17
  -22.24750        1.0687868E-17
  -22.08600        1.0675757E-17
  -21.92450        1.0672174E-17
  -21.76300        1.0687734E-17
  -21.60150        1.0720331E-17
  -21.44000        1.0756706E-17
  -21.27850        1.0781264E-17
  -21.11700        1.0786367E-17
  -20.95550        1.0777399E-17
  -20.79400        1.0769308E-17
  -20.63250        1.0776880E-17
  -20.47100        1.0805071E-17
  -20.30950        1.0845627E-17
  -20.14800        1.0882217E-17
  -19.98650        1.0900756E-17
  -19.82500        1.0898277E-17
  -19.66350        1.0884677E-17
  -19.50200        1.0876245E-17
  -19.34050        1.0885168E-17
  -19.17900        1.0911799E-17
  -19.01750        1.0944626E-17
  -18.85600        1.0967947E-17
  -18.69450        1.0972262E-17
  -18.53300        1.0960668E-17
  -18.37150        1.0947102E-17
  -18.21000        1.0947524E-17
  -18.04850        1.0969685E-17
  -17.88700        1.1008034E-17
  -17.72550        1.1047032E-17
  -17.56400        1.1070797E-17
  -17.40250        1.1072940E-17
  -17.24100        1.1060344E-17
  -17.07950        1.1048521E-17
  -16.91800        1.1051550E-17
  -16.75650        1.1073086E-17
  -16.59500        1.1104170E-17
  -16.43350        1.1129235E-17
  -16.27200        1.1136422E-17
  -16.11050        1.1125531E-17
  -15.94900        1.1108490E-17
  -15.78750        1.1101971E-17
  -15.62600        1.1116895E-17
  -15.46450        1.1151515E-17
  -15.30300        1.1192487E-17
  -15.14150        1.1223261E-17
  -14.98000        1.1234371E-17
  -14.81850        1.1229094E-17
  -14.65700        1.1220867E-17
  -14.49550        1.1224236E-17
  -14.33400        1.1245203E-17
  -14.17250        1.1277222E-17
  -14.01100        1.1305418E-17
  -13.84950        1.1316264E-17
  -13.68800        1.1306455E-17
  -13.52650        1.1285214E-17
  -13.36500        1.1268541E-17
  -13.20350        1.1269105E-17
  -13.04200        1.1288318E-17
  -12.88050        1.1315698E-17
  -12.71900        1.1335921E-17
  -12.55750        1.1338970E-17
  -12.39600        1.1326769E-17
  -12.23450        1.1312000E-17
  -12.07300        1.1309864E-17
  -11.91150        1.1328180E-17
  -11.75000        1.1362280E-17
  -11.58850        1.1398067E-17
  -11.42700        1.1421202E-17
  -11.26550        1.1426428E-17
  -11.10400        1.1420853E-17
  -10.94250        1.1419053E-17
  -10.78100        1.1433186E-17
  -10.61950        1.1464641E-17
  -10.45800        1.1502737E-17
  -10.29650        1.1531406E-17
  -10.13500        1.1539478E-17
  -9.973500        1.1527886E-17
  -9.812000        1.1509029E-17
  -9.650500        1.1498743E-17
  -9.489000        1.1506117E-17
  -9.327500        1.1527835E-17
  -9.166000        1.1550715E-17
  -9.004500        1.1560764E-17
  -8.843000        1.1552746E-17
  -8.681500        1.1533970E-17
  -8.520000        1.1519749E-17
  -8.358500        1.1523480E-17
  -8.197000        1.1547824E-17
  -8.035500        1.1582751E-17
  -7.874000        1.1611815E-17
  -7.712500        1.1622559E-17
  -7.551000        1.1614373E-17
  -7.389500        1.1598666E-17
  -7.228000        1.1591310E-17
  -7.066500        1.1602264E-17
  -6.905000        1.1629157E-17
  -6.743500        1.1659005E-17
  -6.582000        1.1676893E-17
  -6.420500        1.1675939E-17
  -6.259000        1.1661987E-17
  -6.097500        1.1649951E-17
  -5.936000        1.1654179E-17
  -5.774500        1.1679135E-17
  -5.613000        1.1716453E-17
  -5.451500        1.1750284E-17
  -5.290000        1.1767418E-17
  -5.128500        1.1765585E-17
  -4.967000        1.1754581E-17
  -4.805500        1.1749570E-17
  -4.644000        1.1761043E-17
  -4.482500        1.1787996E-17
  -4.321000        1.1818744E-17
  -4.159500        1.1838726E-17
  -3.998000        1.1840101E-17
  -3.836500        1.1826850E-17
  -3.675000        1.1812127E-17
  -3.513500        1.1809665E-17
  -3.352000        1.1824943E-17
  -3.190500        1.1851814E-17
  -3.029000        1.1876720E-17
  -2.867500        1.1887614E-17
  -2.706000        1.1881718E-17
  -2.544500        1.1867139E-17
  -2.383000        1.1857386E-17
  -2.221500        1.1862509E-17
  -2.060000        1.1882648E-17
  -1.898500        1.1908160E-17
  -1.737000        1.1926101E-17
  -1.575500        1.1928757E-17
  -1.414000        1.1918610E-17
  -1.252500        1.1906581E-17
  -1.091000        1.1904783E-17
 -0.9295000        1.1918568E-17
 -0.7680000        1.1943104E-17
 -0.6065000        1.1966618E-17
 -0.4450000        1.1978162E-17
 -0.2835000        1.1974770E-17
 -0.1220000        1.1963373E-17
  3.9500002E-02    1.1956242E-17
  0.2010000        1.1963027E-17
  0.3625000        1.1984557E-17
  0.5240000        1.2012447E-17
  0.6855000        1.2034685E-17
  0.8470000        1.2043507E-17
   1.008500        1.2040398E-17
   1.170000        1.2034966E-17
   1.331500        1.2038444E-17
   1.493000        1.2056107E-17
   1.654500        1.2083566E-17
   1.816000        1.2109382E-17
   1.977500        1.2122316E-17
   2.139000        1.2118519E-17
   2.300500        1.2103995E-17
   2.462000        1.2090774E-17
   2.623500        1.2089269E-17
   2.785000        1.2101794E-17
   2.946500        1.2121412E-17
   3.108000        1.2136817E-17
   3.269500        1.2140006E-17
   3.431000        1.2131748E-17
   3.592500        1.2121252E-17
   3.754000        1.2120273E-17
   3.915500        1.2135465E-17
   4.077000        1.2163917E-17
   4.238500        1.2194779E-17
   4.400000        1.2215922E-17
   4.561500        1.2221391E-17
   4.723000        1.2214879E-17
   4.884500        1.2207070E-17
   5.046000        1.2208580E-17
   5.207500        1.2223072E-17
   5.369000        1.2244943E-17
   5.530500        1.2263063E-17
   5.692000        1.2268127E-17
   5.853500        1.2258856E-17
   6.015000        1.2243043E-17
   6.176500        1.2232730E-17
   6.338000        1.2236590E-17
   6.499500        1.2254441E-17
   6.661000        1.2277432E-17
   6.822500        1.2293806E-17
   6.984000        1.2296520E-17
   7.145500        1.2287799E-17
   7.307000        1.2277643E-17
   7.468500        1.2277284E-17
   7.630000        1.2291836E-17
   7.791500        1.2316963E-17
   7.953000        1.2341734E-17
   8.114500        1.2355782E-17
   8.276000        1.2356058E-17
   8.437500        1.2348732E-17
   8.599000        1.2345006E-17
   8.760500        1.2353612E-17
   8.922000        1.2374954E-17
   9.083500        1.2400758E-17
   9.245000        1.2419472E-17
   9.406500        1.2423832E-17
   9.568000        1.2415656E-17
   9.729500        1.2404668E-17
   9.891000        1.2402181E-17
   10.05250        1.2413759E-17
   10.21400        1.2435706E-17
   10.37550        1.2457644E-17
   10.53700        1.2469469E-17
   10.69850        1.2468089E-17
   10.86000        1.2459479E-17
   11.02150        1.2454687E-17
   11.18300        1.2462423E-17
   11.34450        1.2483111E-17
   11.50600        1.2508395E-17
   11.66750        1.2526475E-17
   11.82900        1.2529813E-17
   11.99050        1.2520145E-17
   12.15200        1.2507451E-17
   12.31350        1.2503508E-17
   12.47500        1.2514251E-17
   12.63650        1.2535959E-17
   12.79800        1.2557809E-17
   12.95950        1.2569143E-17
   13.12100        1.2566613E-17
   13.28250        1.2556477E-17
   13.44400        1.2550451E-17
   13.60550        1.2557856E-17
   13.76700        1.2579243E-17
   13.92850        1.2605764E-17
   14.09000        1.2624763E-17
   14.25150        1.2627949E-17
   14.41300        1.2616791E-17
   14.57450        1.2601576E-17
   14.73600        1.2594754E-17
   14.89750        1.2602944E-17
   15.05900        1.2622827E-17
   15.22050        1.2643610E-17
   15.38200        1.2654369E-17
   15.54350        1.2651431E-17
   15.70500        1.2640894E-17
   15.86650        1.2634660E-17
   16.02800        1.2642604E-17
   16.18950        1.2666010E-17
   16.35100        1.2696604E-17
   16.51250        1.2721750E-17
   16.67400        1.2732455E-17
   16.83550        1.2728930E-17
   16.99700        1.2720158E-17
   17.15850        1.2717823E-17
   17.32000        1.2728612E-17
   17.48150        1.2749918E-17
   17.64300        1.2771690E-17
   17.80450        1.2783163E-17
   17.96600        1.2780000E-17
   18.12750        1.2767187E-17
   18.28900        1.2755809E-17
   18.45050        1.2755872E-17
   18.61200        1.2769866E-17
   18.77350        1.2791297E-17
   18.93500        1.2809073E-17
   19.09650        1.2814852E-17
   19.25800        1.2808506E-17
   19.41950        1.2798158E-17
   19.58100        1.2794809E-17
   19.74250        1.2805135E-17
   19.90400        1.2827183E-17
   20.06550        1.2851754E-17
   20.22700        1.2868481E-17
   20.38850        1.2872579E-17
   20.55000        1.2867800E-17
   20.71150        1.2863705E-17
   20.87300        1.2869113E-17
   21.03450        1.2886098E-17
   21.19600        1.2908491E-17
   21.35750        1.2925858E-17
   21.51900        1.2930312E-17
   21.68050        1.2921675E-17
   21.84200        1.2907628E-17
   22.00350        1.2898782E-17
   22.16500        1.2901935E-17
   22.32650        1.2915898E-17
   22.48800        1.2932578E-17
   22.64950        1.2942531E-17
   22.81100        1.2941299E-17
   22.97250        1.2932392E-17
   23.13400        1.2924961E-17
   23.29550        1.2927742E-17
   23.45700        1.2943203E-17
   23.61850        1.2965748E-17
   23.78000        1.2985150E-17
   23.94150        1.2993032E-17
   24.10300        1.2988221E-17
   24.26450        1.2977529E-17
   24.42600        1.2971439E-17
   24.58750        1.2977463E-17
   24.74900        1.2995425E-17
   24.91050        1.3017709E-17
   25.07200        1.3034318E-17
   25.23350        1.3039443E-17
   25.39500        1.3035303E-17
   25.55650        1.3030701E-17
   25.71800        1.3035229E-17
   25.87950        1.3052846E-17
   26.04100        1.3079040E-17
   26.20250        1.3103473E-17
   26.36400        1.3116446E-17
   26.52550        1.3115044E-17
   26.68700        1.3104964E-17
   26.84850        1.3096852E-17
   27.01000        1.3099500E-17
   27.17150        1.3114305E-17
   27.33300        1.3134553E-17
   27.49450        1.3149967E-17
   27.65600        1.3153521E-17
   27.81750        1.3146087E-17
   27.97900        1.3135907E-17
   28.14050        1.3133225E-17
   28.30200        1.3143603E-17
   28.46350        1.3164261E-17
   28.62500        1.3185807E-17
   28.78650        1.3198250E-17
   28.94800        1.3197381E-17
   29.10950        1.3187432E-17
   29.27100        1.3178278E-17
   29.43250        1.3179041E-17
   29.59400        1.3192203E-17
   29.75550        1.3212073E-17
   29.91700        1.3228553E-17
   30.07850        1.3233757E-17
   30.24000        1.3227156E-17
   30.40150        1.3215896E-17
   30.56300        1.3210078E-17
   30.72450        1.3216110E-17
   30.88600        1.3232474E-17
   31.04750        1.3250725E-17
   31.20900        1.3261094E-17
   31.37050        1.3259029E-17
   31.53200        1.3248355E-17
   31.69350        1.3238923E-17
   31.85500        1.3240238E-17
   32.01650        1.3255272E-17
   32.17800        1.3278517E-17
   32.33950        1.3299613E-17
   32.50100        1.3310142E-17
   32.66250        1.3309095E-17
   32.82400        1.3303383E-17
   32.98550        1.3303018E-17
   33.14700        1.3314213E-17
   33.30850        1.3334989E-17
   33.47000        1.3356286E-17
   33.63150        1.3367866E-17
   33.79300        1.3365116E-17
   33.95450        1.3352252E-17
   34.11600        1.3339755E-17
   34.27750        1.3337722E-17
   34.43900        1.3349475E-17
   34.60050        1.3369623E-17
   34.76200        1.3387819E-17
   34.92350        1.3395721E-17
   35.08500        1.3392571E-17
   35.24650        1.3385700E-17
   35.40800        1.3385639E-17
   35.56950        1.3399030E-17
   35.73100        1.3424012E-17
   35.89250        1.3451153E-17
   36.05400        1.3469349E-17
   36.21550        1.3472898E-17
   36.37700        1.3465105E-17
   36.53850        1.3456086E-17
   36.70000        1.3456164E-17
   36.86150        1.3469160E-17
   37.02300        1.3489974E-17
   37.18450        1.3508010E-17
   37.34600        1.3514207E-17
   37.50750        1.3507055E-17
   37.66900        1.3493624E-17
   37.83050        1.3484948E-17
   37.99200        1.3488785E-17
   38.15350        1.3504511E-17
   38.31500        1.3523536E-17
   38.47650        1.3534920E-17
   38.63800        1.3532528E-17
   38.79950        1.3519022E-17
   38.96100        1.3504097E-17
   39.12250        1.3498152E-17
   39.28400        1.3505588E-17
   39.44550        1.3522079E-17
   39.60700        1.3537588E-17
   39.76850        1.3543058E-17
   39.93000        1.3536346E-17
   40.09150        1.3523566E-17
   40.25300        1.3514980E-17
   40.41450        1.3518223E-17
   40.57600        1.3533337E-17
   40.73750        1.3552829E-17
   40.89900        1.3566674E-17
   41.06050        1.3568933E-17
   41.22200        1.3561639E-17
   41.38350        1.3553428E-17
   41.54500        1.3553870E-17
   41.70650        1.3567220E-17
   41.86800        1.3589685E-17
   42.02950        1.3611949E-17
   42.19100        1.3625241E-17
   42.35250        1.3626973E-17
   42.51400        1.3622235E-17
   42.67550        1.3620243E-17
   42.83700        1.3628078E-17
   42.99850        1.3645900E-17
   43.16000        1.3666758E-17
   43.32150        1.3681160E-17
   43.48300        1.3683366E-17
   43.64450        1.3675283E-17
   43.80600        1.3665365E-17
   43.96750        1.3663198E-17
   44.12900        1.3673339E-17
   44.29050        1.3692406E-17
   44.45200        1.3711367E-17
   44.61350        1.3721517E-17
   44.77500        1.3720212E-17
   44.93650        1.3712577E-17
   45.09800        1.3708038E-17
   45.25950        1.3713966E-17
   45.42100        1.3730622E-17
   45.58250        1.3750810E-17
   45.74400        1.3764481E-17
   45.90550        1.3765310E-17
   46.06700        1.3754899E-17
   46.22850        1.3741837E-17
   46.39000        1.3736187E-17
   46.55150        1.3743015E-17
   46.71300        1.3759195E-17
   46.87450        1.3775569E-17
   47.03600        1.3783039E-17
   47.19750        1.3778596E-17
   47.35900        1.3767316E-17
   47.52050        1.3759056E-17
   47.68200        1.3761986E-17
   47.84350        1.3777205E-17
   48.00500        1.3797943E-17
   48.16650        1.3813867E-17
   48.32800        1.3817711E-17
   48.48950        1.3809921E-17
   48.65100        1.3798330E-17
   48.81250        1.3793046E-17
   48.97400        1.3799901E-17
   49.13550        1.3816672E-17
   49.29700        1.3834554E-17
   49.45850        1.3843922E-17
   49.62000        1.3840647E-17
   49.78150        1.3828851E-17
   49.94300        1.3818294E-17
   50.10450        1.3818068E-17
   50.26600        1.3830696E-17
   50.42750        1.3850539E-17
   50.58900        1.3867524E-17
   50.75050        1.3873815E-17
   50.91200        1.3868994E-17
   51.07350        1.3860346E-17
   51.23500        1.3858028E-17
   51.39650        1.3868305E-17
   51.55800        1.3889329E-17
   51.71950        1.3912268E-17
   51.88100        1.3927055E-17
   52.04250        1.3928926E-17
   52.20400        1.3921441E-17
   52.36550        1.3913957E-17
   52.52700        1.3915291E-17
   52.68850        1.3927793E-17
   52.85000        1.3945787E-17
   53.01150        1.3959407E-17
   53.17300        1.3961255E-17
   53.33450        1.3951420E-17
   53.49600        1.3937547E-17
   53.65750        1.3929900E-17
   53.81900        1.3934699E-17
   53.98050        1.3950140E-17
   54.14200        1.3967702E-17
   54.30350        1.3977878E-17
   54.46500        1.3976500E-17
   54.62650        1.3967510E-17
   54.78800        1.3960332E-17
   54.94950        1.3963575E-17
   55.11100        1.3979233E-17
   55.27250        1.4001210E-17
   55.43400        1.4019191E-17
   55.59550        1.4025357E-17
   55.75700        1.4019532E-17
   55.91850        1.4009333E-17
   56.08000        1.4005200E-17
   56.24150        1.4013490E-17
   56.40300        1.4032236E-17
   56.56450        1.4052369E-17
   56.72600        1.4063688E-17
   56.88750        1.4061614E-17
   57.04900        1.4050293E-17
   57.21050        1.4039920E-17
   57.37200        1.4040033E-17
   57.53350        1.4053190E-17
   57.69500        1.4073254E-17
   57.85650        1.4089414E-17
   58.01800        1.4093321E-17
   58.17950        1.4084596E-17
   58.34100        1.4071087E-17
   58.50250        1.4063693E-17
   58.66400        1.4069211E-17
   58.82550        1.4085908E-17
   58.98700        1.4104710E-17
   59.14850        1.4115205E-17
   59.31000        1.4112452E-17
   59.47150        1.4100162E-17
   59.63300        1.4088181E-17
   59.79450        1.4086017E-17
   59.95600        1.4096660E-17
   60.11750        1.4114722E-17
   60.27900        1.4130081E-17
   60.44050        1.4134533E-17
   60.60200        1.4127131E-17
   60.76350        1.4114712E-17
   60.92500        1.4107342E-17
   61.08650        1.4111703E-17
   61.24800        1.4126761E-17
   61.40950        1.4144514E-17
   61.57100        1.4155287E-17
   61.73250        1.4154091E-17
   61.89400        1.4143844E-17
   62.05550        1.4133410E-17
   62.21700        1.4131759E-17
   62.37850        1.4142108E-17
   62.54000        1.4159913E-17
   62.70150        1.4175986E-17
   62.86300        1.4182665E-17
   63.02450        1.4178915E-17
   63.18600        1.4170984E-17
   63.34750        1.4168206E-17
   63.50900        1.4176746E-17
   63.67050        1.4195448E-17
   63.83200        1.4216558E-17
   63.99350        1.4230804E-17
   64.15500        1.4233466E-17
   64.31650        1.4227414E-17
   64.47800        1.4221078E-17
   64.63950        1.4222775E-17
   64.80100        1.4235140E-17
   64.96250        1.4253363E-17
   65.12400        1.4268394E-17
   65.28550        1.4272947E-17
   65.44700        1.4266354E-17
   65.60850        1.4255032E-17
   65.77000        1.4248294E-17
   65.93150        1.4252248E-17
   66.09300        1.4265817E-17
   66.25450        1.4281467E-17
   66.41600        1.4290195E-17
   66.57750        1.4287469E-17
   66.73900        1.4276257E-17
   66.90050        1.4265152E-17
   67.06200        1.4262801E-17
   67.22350        1.4272288E-17
   67.38500        1.4289125E-17
   67.54650        1.4304173E-17
   67.70800        1.4309626E-17
   67.86950        1.4304110E-17
   68.03100        1.4293602E-17
   68.19250        1.4287527E-17
   68.35400        1.4292581E-17
   68.51550        1.4308320E-17
   68.67700        1.4327405E-17
   68.83850        1.4340352E-17
   69.00000        1.4341727E-17
   69.16150        1.4333682E-17
   69.32300        1.4324548E-17
   69.48450        1.4323392E-17
   69.64600        1.4334099E-17
   69.80750        1.4352879E-17
   69.96900        1.4370802E-17
   70.13050        1.4379685E-17
   70.29200        1.4377445E-17
   70.45350        1.4369388E-17
   70.61500        1.4364618E-17
   70.77650        1.4369974E-17
   70.93800        1.4385486E-17
   71.09950        1.4404389E-17
   71.26100        1.4417581E-17
   71.42250        1.4419593E-17
   71.58400        1.4412095E-17
   71.74550        1.4402672E-17
   71.90700        1.4399739E-17
   72.06850        1.4406995E-17
   72.23000        1.4421072E-17
   72.39150        1.4433877E-17
   72.55300        1.4438017E-17
   72.71450        1.4431689E-17
   72.87600        1.4419796E-17
   73.03750        1.4410633E-17
   73.19900        1.4410358E-17
   73.36050        1.4418944E-17
   73.52200        1.4430252E-17
   73.68350        1.4436168E-17
   73.84500        1.4432058E-17
   74.00650        1.4419905E-17
   74.16800        1.4407076E-17
   74.32950        1.4401506E-17
   74.49100        1.4406515E-17
   74.65250        1.4418694E-17
   74.81400        1.4430262E-17
   74.97550        1.4434346E-17
   75.13700        1.4429674E-17
   75.29850        1.4421484E-17
   75.46000        1.4418036E-17
   75.62150        1.4425006E-17
   75.78300        1.4441531E-17
   75.94450        1.4460608E-17
   76.10600        1.4473623E-17
   76.26750        1.4476036E-17
   76.42900        1.4470388E-17
   76.59050        1.4464598E-17
   76.75200        1.4466668E-17
   76.91350        1.4479340E-17
   77.07500        1.4498271E-17
   77.23650        1.4514977E-17
   77.39800        1.4522549E-17
   77.55950        1.4520315E-17
   77.72100        1.4514300E-17
   77.88250        1.4513205E-17
   78.04400        1.4522580E-17
   78.20550        1.4541102E-17
   78.36700        1.4561408E-17
   78.52850        1.4574909E-17
   78.69000        1.4577381E-17
   78.85150        1.4571650E-17
   79.01300        1.4565653E-17
   79.17450        1.4567188E-17
   79.33600        1.4578847E-17
   79.49750        1.4596431E-17
   79.65900        1.4611844E-17
   79.82050        1.4618472E-17
   79.98200        1.4615529E-17
   80.14350        1.4608496E-17
   80.30500        1.4605460E-17
   80.46650        1.4611737E-17
   80.62800        1.4626366E-17
   80.78950        1.4642733E-17
   80.95100        1.4652891E-17
   81.11250        1.4652742E-17
   81.27400        1.4644645E-17
   81.43550        1.4635766E-17
   81.59700        1.4633283E-17
   81.75850        1.4639643E-17
   81.92000        1.4651018E-17
   82.08150        1.4659957E-17
   82.24300        1.4660426E-17
   82.40450        1.4651875E-17
   82.56600        1.4639553E-17
   82.72750        1.4630952E-17
   82.88900        1.4630739E-17
   83.05050        1.4637656E-17
   83.21200        1.4645449E-17
   83.37350        1.4647190E-17
   83.53500        1.4640028E-17
   83.69650        1.4627185E-17
   83.85800        1.4615835E-17
   84.01950        1.4612364E-17
   84.18100        1.4618207E-17
   84.34250        1.4629045E-17
   84.50400        1.4637859E-17
   84.66550        1.4639732E-17
   84.82700        1.4635125E-17
   84.98850        1.4629482E-17
   85.15000        1.4629439E-17
   85.31150        1.4638222E-17
   85.47300        1.4653342E-17
   85.63450        1.4668116E-17
   85.79600        1.4675997E-17
   85.95750        1.4674849E-17
   86.11900        1.4668331E-17
   86.28050        1.4663494E-17
   86.44200        1.4666189E-17
   86.60350        1.4677299E-17
   86.76500        1.4692281E-17
   86.92650        1.4704292E-17
   87.08800        1.4708823E-17
   87.24950        1.4706762E-17
   87.41100        1.4703858E-17
   87.57250        1.4706904E-17
   87.73400        1.4719179E-17
   87.89550        1.4738128E-17
   88.05700        1.4756869E-17
   88.21850        1.4768531E-17
   88.38000        1.4770623E-17
   88.54150        1.4766564E-17
   88.70300        1.4763356E-17
   88.86450        1.4766966E-17
   89.02600        1.4778430E-17
   89.18750        1.4793230E-17
   89.34900        1.4804357E-17
   89.51050        1.4806998E-17
   89.67200        1.4801765E-17
   89.83350        1.4794335E-17
   89.99500        1.4791740E-17
   90.15650        1.4797773E-17
   90.31800        1.4810527E-17
   90.47950        1.4823670E-17
   90.64100        1.4830614E-17
   90.80250        1.4828802E-17
   90.96400        1.4821326E-17
   91.12550        1.4814828E-17
   91.28700        1.4815112E-17
   91.44850        1.4823369E-17
   91.61000        1.4835502E-17
   91.77150        1.4844911E-17
   91.93300        1.4846896E-17
   92.09450        1.4841731E-17
   92.25600        1.4834411E-17
   92.41750        1.4831267E-17
   92.57900        1.4835736E-17
   92.74050        1.4846076E-17
   92.90200        1.4856538E-17
   93.06350        1.4861183E-17
   93.22500        1.4857802E-17
   93.38650        1.4849359E-17
   93.54800        1.4842026E-17
   93.70950        1.4841129E-17
   93.87100        1.4847697E-17
   94.03250        1.4857889E-17
   94.19400        1.4865655E-17
   94.35550        1.4866825E-17
   94.51700        1.4861924E-17
   94.67850        1.4855820E-17
   94.84000        1.4854437E-17
   95.00150        1.4860755E-17
   95.16300        1.4872732E-17
   95.32450        1.4884587E-17
   95.48600        1.4890568E-17
   95.64750        1.4888755E-17
   95.80900        1.4882366E-17
   95.97050        1.4877689E-17
   96.13200        1.4880005E-17
   96.29350        1.4890156E-17
   96.45500        1.4904063E-17
   96.61650        1.4915456E-17
   96.77800        1.4920078E-17
   96.93950        1.4918512E-17
   97.10100        1.4915808E-17
   97.26250        1.4918128E-17
   97.42400        1.4928564E-17
   97.58550        1.4944940E-17
   97.74700        1.4961006E-17
   97.90850        1.4970331E-17
   98.07000        1.4970358E-17
   98.23150        1.4964005E-17
   98.39300        1.4957758E-17
   98.55450        1.4957474E-17
   98.71600        1.4964624E-17
   98.87750        1.4975420E-17
   99.03900        1.4983389E-17
   99.20050        1.4983723E-17
   99.36200        1.4976563E-17
   99.52350        1.4967077E-17
   99.68500        1.4962213E-17
   99.84650        1.4966243E-17
   100.0080        1.4977988E-17
   100.1695        1.4991524E-17
   100.3310        1.4999943E-17
   100.4925        1.4999723E-17
   100.6540        1.4992862E-17
   100.8155        1.4985419E-17
   100.9770        1.4983449E-17
   101.1385        1.4988997E-17
   101.3000        1.4998780E-17
   101.4615        1.5006367E-17
   101.6230        1.5006438E-17
   101.7845        1.4998310E-17
   101.9460        1.4986430E-17
   102.1075        1.4977558E-17
   102.2690        1.4976485E-17
   102.4305        1.4983093E-17
   102.5920        1.4992589E-17
   102.7535        1.4998755E-17
   102.9150        1.4998042E-17
   103.0765        1.4991866E-17
   103.2380        1.4985641E-17
   103.3995        1.4985225E-17
   103.5610        1.4993099E-17
   103.7225        1.5006747E-17
   103.8840        1.5020323E-17
   104.0455        1.5028446E-17
   104.2070        1.5029688E-17
   104.3685        1.5027440E-17
   104.5300        1.5027605E-17
   104.6915        1.5034633E-17
   104.8530        1.5048480E-17
   105.0145        1.5064539E-17
   105.1760        1.5076573E-17
   105.3375        1.5080783E-17
   105.4990        1.5078282E-17
   105.6605        1.5074377E-17
   105.8220        1.5075107E-17
   105.9835        1.5083296E-17
   106.1450        1.5096751E-17
   106.3065        1.5109771E-17
   106.4680        1.5116971E-17
   106.6295        1.5116909E-17
   106.7910        1.5113104E-17
   106.9525        1.5111749E-17
   107.1140        1.5117614E-17
   107.2755        1.5130793E-17
   107.4370        1.5146474E-17
   107.5985        1.5157886E-17
   107.7600        1.5160568E-17
   107.9215        1.5155190E-17
   108.0830        1.5147101E-17
   108.2445        1.5142888E-17
   108.4060        1.5146132E-17
   108.5675        1.5155133E-17
   108.7290        1.5164074E-17
   108.8905        1.5166881E-17
   109.0520        1.5161314E-17
   109.2135        1.5150594E-17
   109.3750        1.5141472E-17
   109.5365        1.5139976E-17
   109.6980        1.5147520E-17
   109.8595        1.5159928E-17
   110.0210        1.5169998E-17
   110.1825        1.5172029E-17
   110.3440        1.5165392E-17
   110.5055        1.5154869E-17
   110.6670        1.5147533E-17
   110.8285        1.5148183E-17
   110.9900        1.5156247E-17
   111.1515        1.5166166E-17
   111.3130        1.5171032E-17
   111.4745        1.5167101E-17
   111.6360        1.5156331E-17
   111.7975        1.5145245E-17
   111.9590        1.5140830E-17
   112.1205        1.5146099E-17
   112.2820        1.5158171E-17
   112.4435        1.5170114E-17
   112.6050        1.5175399E-17
   112.7665        1.5172096E-17
   112.9280        1.5164065E-17
   113.0895        1.5158402E-17
   113.2510        1.5160737E-17
   113.4125        1.5171487E-17
   113.5740        1.5185532E-17
   113.7355        1.5195549E-17
   113.8970        1.5196812E-17
   114.0585        1.5190308E-17
   114.2200        1.5182088E-17
   114.3815        1.5179251E-17
   114.5430        1.5185238E-17
   114.7045        1.5197558E-17
   114.8660        1.5209466E-17
   115.0275        1.5214492E-17
   115.1890        1.5210806E-17
   115.3505        1.5202481E-17
   115.5120        1.5196830E-17
   115.6735        1.5199556E-17
   115.8350        1.5210986E-17
   115.9965        1.5225885E-17
   116.1580        1.5236975E-17
   116.3195        1.5239823E-17
   116.4810        1.5235815E-17
   116.6425        1.5231198E-17
   116.8040        1.5232832E-17
   116.9655        1.5243466E-17
   117.1270        1.5259704E-17
   117.2885        1.5274092E-17
   117.4500        1.5279966E-17
   117.6115        1.5275860E-17
   117.7730        1.5266521E-17
   117.9345        1.5259803E-17
   118.0960        1.5261481E-17
   118.2575        1.5271423E-17
   118.4190        1.5283737E-17
   118.5805        1.5290786E-17
   118.7420        1.5288468E-17