  -27.90000        3.8553962E-18
  -27.73850        3.8533220E-18
  -27.57700        3.8498545E-18
  -27.41550        3.8459225E-18
  -27.25400        3.8422089E-18
  -27.09250        3.8388546E-18
  -26.93100        3.8355451E-18
  -26.76950        3.8318778E-18
  -26.60800        3.8277510E-18
  -26.44650        3.8234935E-18
  -26.28500        3.8196628E-18
  -26.12350        3.8166552E-18
  -25.96200        3.8144053E-18
  -25.80050        3.8124072E-18
  -25.63900        3.8100497E-18
  -25.47750        3.8070359E-18
  -25.31600        3.8035882E-18
  -25.15450        3.8002985E-18
  -24.99300        3.7977206E-18
  -24.83150        3.7959926E-18
  -24.67000        3.7947477E-18
  -24.50850        3.7933746E-18
  -24.34700        3.7914452E-18
  -24.18550        3.7890100E-18
  -24.02400        3.7865644E-18
  -23.86250        3.7846942E-18
  -23.70100        3.7836474E-18
  -23.53950        3.7831341E-18
  -23.37800        3.7824992E-18
  -23.21650        3.7811679E-18
  -23.05500        3.7790507E-18
  -22.89350        3.7766221E-18
  -22.73200        3.7746141E-18
  -22.57050        3.7735326E-18
  -22.40900        3.7733080E-18
  -22.24750        3.7733304E-18
  -22.08600        3.7728341E-18
  -21.92450        3.7713869E-18
  -21.76300        3.7691618E-18
  -21.60150        3.7668151E-18
  -21.44000        3.7650490E-18
  -21.27850        3.7641607E-18
  -21.11700        3.7638662E-18
  -20.95550        3.7635183E-18
  -20.79400        3.7625443E-18
  -20.63250        3.7608060E-18
  -20.47100        3.7586338E-18
  -20.30950        3.7565477E-18
  -20.14800        3.7548681E-18
  -19.98650        3.7535037E-18
  -19.82500        3.7520507E-18
  -19.66350        3.7501329E-18
  -19.50200        3.7477275E-18
  -19.34050        3.7452368E-18
  -19.17900        3.7432528E-18
  -19.01750        3.7421589E-18
  -18.85600        3.7418657E-18
  -18.69450        3.7418599E-18
  -18.53300        3.7415340E-18
  -18.37150        3.7405637E-18
  -18.21000        3.7390611E-18
  -18.04850        3.7374142E-18
  -17.88700        3.7359397E-18
  -17.72550        3.7346113E-18
  -17.56400        3.7330748E-18
  -17.40250        3.7309378E-18
  -17.24100        3.7281402E-18
  -17.07950        3.7251177E-18
  -16.91800        3.7226105E-18
  -16.75650        3.7212180E-18
  -16.59500        3.7209868E-18
  -16.43350        3.7213359E-18
  -16.27200        3.7213863E-18
  -16.11050        3.7205025E-18
  -15.94900        3.7186794E-18
  -15.78750        3.7165246E-18
  -15.62600        3.7148384E-18
  -15.46450        3.7140645E-18
  -15.30300        3.7139719E-18
  -15.14150        3.7137738E-18
  -14.98000        3.7126265E-18
  -14.81850        3.7101842E-18
  -14.65700        3.7068590E-18
  -14.49550        3.7035990E-18
  -14.33400        3.7013317E-18
  -14.17250        3.7004218E-18
  -14.01100        3.7004789E-18
  -13.84950        3.7006208E-18
  -13.68800        3.7000082E-18
  -13.52650        3.6983187E-18
  -13.36500        3.6958847E-18
  -13.20350        3.6934495E-18
  -13.04200        3.6917174E-18
  -12.88050        3.6909816E-18
  -12.71900        3.6910246E-18
  -12.55750        3.6913100E-18
  -12.39600        3.6913022E-18
  -12.23450        3.6906979E-18
  -12.07300        3.6894704E-18
  -11.91150        3.6877664E-18
  -11.75000        3.6857989E-18
  -11.58850        3.6838092E-18
  -11.42700        3.6820882E-18
  -11.26550        3.6809525E-18
  -11.10400        3.6806138E-18
  -10.94250        3.6809893E-18
  -10.78100        3.6815993E-18
  -10.61950        3.6816821E-18
  -10.45800        3.6805455E-18
  -10.29650        3.6779941E-18
  -10.13500        3.6745609E-18
  -9.973500        3.6713444E-18
  -9.812000        3.6694642E-18
  -9.650500        3.6694270E-18
  -9.489000        3.6707794E-18
  -9.327500        3.6722977E-18
  -9.166000        3.6726488E-18
  -9.004500        3.6711554E-18
  -8.843000        3.6682147E-18
  -8.681500        3.6651149E-18
  -8.520000        3.6633195E-18
  -8.358500        3.6636272E-18
  -8.197000        3.6656831E-18
  -8.035500        3.6681382E-18
  -7.874000        3.6693633E-18
  -7.712500        3.6683214E-18
  -7.551000        3.6650930E-18
  -7.389500        3.6607908E-18
  -7.228000        3.6569411E-18
  -7.066500        3.6547106E-18
  -6.905000        3.6543892E-18
  -6.743500        3.6553595E-18
  -6.582000        3.6564952E-18
  -6.420500        3.6567198E-18
  -6.259000        3.6554331E-18
  -6.097500        3.6526418E-18
  -5.936000        3.6488149E-18
  -5.774500        3.6446339E-18
  -5.613000        3.6407685E-18
  -5.451500        3.6377331E-18
  -5.290000        3.6357802E-18
  -5.128500        3.6348053E-18
  -4.967000        3.6343098E-18
  -4.805500        3.6335290E-18
  -4.644000        3.6317572E-18
  -4.482500        3.6287553E-18
  -4.321000        3.6250198E-18
  -4.159500        3.6216920E-18
  -3.998000        3.6200683E-18
  -3.836500        3.6209116E-18
  -3.675000        3.6239415E-18
  -3.513500        3.6278276E-18
  -3.352000        3.6307674E-18
  -3.190500        3.6313882E-18
  -3.029000        3.6294646E-18
  -2.867500        3.6260422E-18
  -2.706000        3.6228745E-18
  -2.544500        3.6214782E-18
  -2.383000        3.6223401E-18
  -2.221500        3.6246980E-18
  -2.060000        3.6270017E-18
  -1.898500        3.6277565E-18
  -1.737000        3.6262775E-18
  -1.575500        3.6229680E-18
  -1.414000        3.6190070E-18
  -1.252500        3.6157020E-18
  -1.091000        3.6138764E-18
 -0.9295000        3.6136125E-18
 -0.7680000        3.6143826E-18
 -0.6065000        3.6154017E-18
 -0.4450000        3.6159530E-18
 -0.2835000        3.6155730E-18
 -0.1220000        3.6140985E-18
  3.9500002E-02    3.6116836E-18
  0.2010000        3.6088182E-18
  0.3625000        3.6062912E-18
  0.5240000        3.6050041E-18
  0.6855000        3.6056067E-18
  0.8470000        3.6080853E-18
   1.008500        3.6115578E-18
   1.170000        3.6144960E-18
   1.331500        3.6153802E-18
   1.493000        3.6134947E-18
   1.654500        3.6094125E-18
   1.816000        3.6048287E-18
   1.977500        3.6017561E-18
   2.139000        3.6014819E-18
   2.300500        3.6038564E-18
   2.462000        3.6073235E-18
   2.623500        3.6097128E-18
   2.785000        3.6093679E-18
   2.946500        3.6060203E-18
   3.108000        3.6009195E-18
   3.269500        3.5961714E-18
   3.431000        3.5936510E-18
   3.592500        3.5940861E-18
   3.754000        3.5967658E-18
   3.915500        3.5999657E-18
   4.077000        3.6017971E-18
   4.238500        3.6010369E-18
   4.400000        3.5975615E-18
   4.561500        3.5922820E-18
   4.723000        3.5866919E-18
   4.884500        3.5822818E-18
   5.046000        3.5800377E-18
   5.207500        3.5801539E-18
   5.369000        3.5819977E-18
   5.530500        3.5842985E-18
   5.692000        3.5855566E-18
   5.853500        3.5846017E-18
   6.015000        3.5811453E-18
   6.176500        3.5760610E-18
   6.338000        3.5711579E-18
   6.499500        3.5684315E-18
   6.661000        3.5690676E-18
   6.822500        3.5727051E-18
   6.984000        3.5774089E-18
   7.145500        3.5804744E-18
   7.307000        3.5797432E-18
   7.468500        3.5747756E-18
   7.630000        3.5672230E-18
   7.791500        3.5601229E-18
   7.953000        3.5564188E-18
   8.114500        3.5574619E-18
   8.276000        3.5622971E-18
   8.437500        3.5681337E-18
   8.599000        3.5717502E-18
   8.760500        3.5710979E-18
   8.922000        3.5662713E-18
   9.083500        3.5593822E-18
   9.245000        3.5534525E-18
   9.406500        3.5509213E-18
   9.568000        3.5525335E-18
   9.729500        3.5571120E-18
   9.891000        3.5622463E-18
   10.05250        3.5654694E-18
   10.21400        3.5653267E-18
   10.37550        3.5618865E-18
   10.53700        3.5565660E-18
   10.69850        3.5514541E-18
   10.86000        3.5484497E-18
   11.02150        3.5485366E-18
   11.18300        3.5514193E-18
   11.34450        3.5556297E-18
   11.50600        3.5590711E-18
   11.66750        3.5598408E-18
   11.82900        3.5570479E-18
   11.99050        3.5513093E-18
   12.15200        3.5446513E-18
   12.31350        3.5397428E-18
   12.47500        3.5387159E-18
   12.63650        3.5420842E-18
   12.79800        3.5483472E-18
   12.95950        3.5545750E-18
   13.12100        3.5577700E-18
   13.28250        3.5563621E-18
   13.44400        3.5510400E-18
   13.60550        3.5444544E-18
   13.76700        3.5398901E-18
   13.92850        3.5395757E-18
   14.09000        3.5435139E-18
   14.25150        3.5494618E-18
   14.41300        3.5540919E-18
   14.57450        3.5547040E-18
   14.73600        3.5505739E-18
   14.89750        3.5432426E-18
   15.05900        3.5356499E-18
   15.22050        3.5306401E-18
   15.38200        3.5296343E-18
   15.54350        3.5321171E-18
   15.70500        3.5360900E-18
   15.86650        3.5391588E-18
   16.02800        3.5396601E-18
   16.18950        3.5372853E-18
   16.35100        3.5330071E-18
   16.51250        3.5284837E-18
   16.67400        3.5253015E-18
   16.83550        3.5244036E-18
   16.99700        3.5258445E-18
   17.15850        3.5288518E-18
   17.32000        3.5321228E-18
   17.48150        3.5342768E-18
   17.64300        3.5343600E-18
   17.80450        3.5322602E-18
   17.96600        3.5288381E-18
   18.12750        3.5256473E-18
   18.28900        3.5242721E-18
   18.45050        3.5255439E-18
   18.61200        3.5290035E-18
   18.77350        3.5329703E-18
   18.93500        3.5352641E-18
   19.09650        3.5342921E-18
   19.25800        3.5299130E-18
   19.41950        3.5235814E-18
   19.58100        3.5176464E-18
   19.74250        3.5141635E-18
   19.90400        3.5138645E-18
   20.06550        3.5158435E-18
   20.22700        3.5181158E-18
   20.38850        3.5187147E-18
   20.55000        3.5167162E-18
   20.71150        3.5126336E-18
   20.87300        3.5080176E-18
   21.03450        3.5045310E-18
   21.19600        3.5030776E-18
   21.35750        3.5034577E-18
   21.51900        3.5046571E-18
   21.68050        3.5055145E-18
   21.84200        3.5053284E-18
   22.00350        3.5040884E-18
   22.16500        3.5023030E-18
   22.32650        3.5006250E-18
   22.48800        3.4995294E-18
   22.64950        3.4992097E-18
   22.81100        3.4996572E-18
   22.97250        3.5007698E-18
   23.13400        3.5023646E-18
   23.29550        3.5040988E-18
   23.45700        3.5054434E-18
   23.61850        3.5058334E-18
   23.78000        3.5049690E-18
   23.94150        3.5030669E-18
   24.10300        3.5008500E-18
   24.26450        3.4992110E-18
   24.42600        3.4987213E-18
   24.58750        3.4992809E-18
   24.74900        3.5001490E-18
   24.91050        3.5003703E-18
   25.07200        3.4993669E-18
   25.23350        3.4973213E-18
   25.39500        3.4951065E-18
   25.55650        3.4937648E-18
   25.71800        3.4938624E-18
   25.87950        3.4951350E-18
   26.04100        3.4966389E-18
   26.20250        3.4973093E-18
   26.36400        3.4965570E-18
   26.52550        3.4945519E-18
   26.68700        3.4920389E-18
   26.84850        3.4898477E-18
   27.01000        3.4884237E-18
   27.17150        3.4876640E-18
   27.33300        3.4871366E-18
   27.49450        3.4864906E-18
   27.65600        3.4857387E-18
   27.81750        3.4852122E-18
   27.97900        3.4852523E-18
   28.14050        3.4858830E-18
   28.30200        3.4867392E-18
   28.46350        3.4872897E-18
   28.62500        3.4871900E-18
   28.78650        3.4864898E-18
   28.94800        3.4855460E-18
   29.10950        3.4847084E-18
   29.27100        3.4840210E-18
   29.43250        3.4831707E-18
   29.59400        3.4817583E-18
   29.75550        3.4796945E-18
   29.91700        3.4774164E-18
   30.07850        3.4757228E-18
   30.24000        3.4752790E-18
   30.40150        3.4761355E-18
   30.56300        3.4776058E-18
   30.72450        3.4786349E-18
   30.88600        3.4784305E-18
   31.04750        3.4769586E-18
   31.20900        3.4749700E-18
   31.37050        3.4735167E-18
   31.53200        3.4732665E-18
   31.69350        3.4740539E-18
   31.85500        3.4749729E-18
   32.01650        3.4749659E-18
   32.17800        3.4735353E-18
   32.33950        3.4710997E-18
   32.50100        3.4687618E-18
   32.66250        3.4676408E-18
   32.82400        3.4682031E-18
   32.98550        3.4700074E-18
   33.14700        3.4719885E-18
   33.30850        3.4730791E-18
   33.47000        3.4727681E-18
   33.63150        3.4712787E-18
   33.79300        3.4693220E-18
   33.95450        3.4676325E-18
   34.11600        3.4666116E-18
   34.27750        3.4662658E-18
   34.43900        3.4663903E-18
   34.60050        3.4667872E-18
   34.76200        3.4673232E-18
   34.92350        3.4678261E-18
   35.08500        3.4679969E-18
   35.24650        3.4674890E-18
   35.40800        3.4661670E-18
   35.56950        3.4643401E-18
   35.73100        3.4627325E-18
   35.89250        3.4621123E-18
   36.05400        3.4627489E-18
   36.21550        3.4640587E-18
   36.37700        3.4647593E-18
   36.53850        3.4635430E-18
   36.70000        3.4599197E-18
   36.86150        3.4546965E-18
   37.02300        3.4497193E-18
   37.18450        3.4469522E-18
   37.34600        3.4473954E-18
   37.50750        3.4504911E-18
   37.66900        3.4543952E-18
   37.83050        3.4569741E-18
   37.99200        3.4569733E-18
   38.15350        3.4546727E-18
   38.31500        3.4516673E-18
   38.47650        3.4499127E-18
   38.63800        3.4506032E-18
   38.79950        3.4535285E-18
   38.96100        3.4572347E-18
   39.12250        3.4598415E-18
   39.28400        3.4600045E-18
   39.44550        3.4575045E-18
   39.60700        3.4532168E-18
   39.76850        3.4485950E-18
   39.93000        3.4449963E-18
   40.09150        3.4432026E-18
   40.25300        3.4432594E-18
   40.41450        3.4446003E-18
   40.57600        3.4462921E-18
   40.73750        3.4473157E-18
   40.89900        3.4468476E-18
   41.06050        3.4445536E-18
   41.22200        3.4408116E-18
   41.38350        3.4367121E-18
   41.54500        3.4336900E-18
   41.70650        3.4328661E-18
   41.86800        3.4343917E-18
   42.02950        3.4372057E-18
   42.19100        3.4394523E-18
   42.35250        3.4394294E-18
   42.51400        3.4365804E-18
   42.67550        3.4319403E-18
   42.83700        3.4276998E-18
   42.99850        3.4260566E-18
   43.16000        3.4279744E-18
   43.32150        3.4325764E-18
   43.48300        3.4375682E-18
   43.64450        3.4404791E-18
   43.80600        3.4400152E-18
   43.96750        3.4367508E-18
   44.12900        3.4327716E-18
   44.29050        3.4304979E-18
   44.45200        3.4313813E-18
   44.61350        3.4352044E-18
   44.77500        3.4403199E-18
   44.93650        3.4446204E-18
   45.09800        3.4466252E-18
   45.25950        3.4460843E-18
   45.42100        3.4438420E-18
   45.58250        3.4411704E-18
   45.74400        3.4390379E-18
   45.90550        3.4377229E-18
   46.06700        3.4368908E-18
   46.22850        3.4359480E-18
   46.39000        3.4343943E-18
   46.55150        3.4319794E-18
   46.71300        3.4286880E-18
   46.87450        3.4246799E-18
   47.03600        3.4202897E-18
   47.19750        3.4160564E-18
   47.35900        3.4126668E-18
   47.52050        3.4107244E-18
   47.68200        3.4104253E-18
   47.84350        3.4113580E-18
   48.00500        3.4126234E-18
   48.16650        3.4132872E-18
   48.32800        3.4129127E-18
   48.48950        3.4118425E-18
   48.65100        3.4110033E-18
   48.81250        3.4113263E-18
   48.97400        3.4131385E-18
   49.13550        3.4159186E-18
   49.29700        3.4185931E-18
   49.45850        3.4201954E-18
   49.62000        3.4204592E-18
   49.78150        3.4199582E-18
   49.94300        3.4196960E-18
   50.10450        3.4204322E-18
   50.26600        3.4221924E-18
   50.42750        3.4242827E-18
   50.58900        3.4257805E-18
   50.75050        3.4261486E-18
   50.91200        3.4255574E-18
   51.07350        3.4246985E-18
   51.23500        3.4242477E-18
   51.39650        3.4243590E-18
   51.55800        3.4245472E-18
   51.71950        3.4240461E-18
   51.88100        3.4223826E-18
   52.04250        3.4197611E-18
   52.20400        3.4169967E-18
   52.36550        3.4150336E-18
   52.52700        3.4143706E-18
   52.68850        3.4147680E-18
   52.85000        3.4154037E-18
   53.01150        3.4153684E-18
   53.17300        3.4141752E-18
   53.33450        3.4119854E-18
   53.49600        3.4094553E-18
   53.65750        3.4073441E-18
   53.81900        3.4061372E-18
   53.98050        3.4058907E-18
   54.14200        3.4063161E-18
   54.30350        3.4069820E-18
   54.46500        3.4074814E-18
   54.62650        3.4075075E-18
   54.78800        3.4068780E-18
   54.94950        3.4055657E-18
   55.11100        3.4037502E-18
   55.27250        3.4018173E-18
   55.43400        3.4002438E-18
   55.59550        3.3993684E-18
   55.75700        3.3991695E-18
   55.91850        3.3992137E-18
   56.08000        3.3988690E-18
   56.24150        3.3977029E-18
   56.40300        3.3958322E-18
   56.56450        3.3939766E-18
   56.72600        3.3931379E-18
   56.88750        3.3940585E-18
   57.04900        3.3967740E-18
   57.21050        3.4005360E-18
   57.37200        3.4041667E-18
   57.53350        3.4066476E-18
   57.69500        3.4076166E-18
   57.85650        3.4074843E-18
   58.01800        3.4071286E-18
   58.17950        3.4073584E-18
   58.34100        3.4084595E-18
   58.50250        3.4100734E-18
   58.66400        3.4114271E-18
   58.82550        3.4117526E-18
   58.98700        3.4106373E-18
   59.14850        3.4081518E-18
   59.31000        3.4047465E-18
   59.47150        3.4010253E-18
   59.63300        3.3975327E-18
   59.79450        3.3946272E-18
   59.95600        3.3924519E-18
   60.11750        3.3909504E-18
   60.27900        3.3899071E-18
   60.44050        3.3890136E-18
   60.60200        3.3879759E-18
   60.76350        3.3866594E-18
   60.92500        3.3851870E-18
   61.08650        3.3839235E-18
   61.24800        3.3833066E-18
   61.40950        3.3836123E-18
   61.57100        3.3847840E-18
   61.73250        3.3864392E-18
   61.89400        3.3880553E-18
   62.05550        3.3892324E-18
   62.21700        3.3898740E-18
   62.37850        3.3901937E-18
   62.54000        3.3905391E-18
   62.70150        3.3911562E-18
   62.86300        3.3920338E-18
   63.02450        3.3929156E-18
   63.18600        3.3934605E-18
   63.34750        3.3934253E-18
   63.50900        3.3927681E-18
   63.67050        3.3916277E-18
   63.83200        3.3902363E-18
   63.99350        3.3888345E-18
   64.15500        3.3876249E-18
   64.31650        3.3867630E-18
   64.47800        3.3863329E-18
   64.63950        3.3863145E-18
   64.80100        3.3865531E-18
   64.96250        3.3867781E-18
   65.12400        3.3867014E-18
   65.28550        3.3861631E-18
   65.44700        3.3852398E-18
   65.60850        3.3842312E-18
   65.77000        3.3835037E-18
   65.93150        3.3832901E-18
   66.09300        3.3835709E-18
   66.25450        3.3841183E-18
   66.41600        3.3846642E-18
   66.57750        3.3850671E-18
   66.73900        3.3853616E-18
   66.90050        3.3856631E-18
   67.06200        3.3860063E-18
   67.22350        3.3862417E-18
   67.38500        3.3860802E-18
   67.54650        3.3852664E-18
   67.70800        3.3837645E-18
   67.86950        3.3818084E-18
   68.03100        3.3797706E-18
   68.19250        3.3779395E-18
   68.35400        3.3763612E-18
   68.51550        3.3748644E-18
   68.67700        3.3732452E-18
   68.83850        3.3714740E-18
   69.00000        3.3697864E-18
   69.16150        3.3685857E-18
   69.32300        3.3682366E-18
   69.48450        3.3688711E-18
   69.64600        3.3703284E-18
   69.80750        3.3722520E-18
   69.96900        3.3742678E-18
   70.13050        3.3761300E-18
   70.29200        3.3777523E-18
   70.45350        3.3791552E-18
   70.61500        3.3804003E-18
   70.77650        3.3815615E-18
   70.93800        3.3827191E-18
   71.09950        3.3839183E-18
   71.26100        3.3850849E-18
   71.42250        3.3859501E-18
   71.58400        3.3860849E-18
   71.74550        3.3850673E-18
   71.90700        3.3827353E-18
   72.06850        3.3793604E-18
   72.23000        3.3756093E-18
   72.39150        3.3722615E-18
   72.55300        3.3698079E-18
   72.71450        3.3681814E-18
   72.87600        3.3667974E-18
   73.03750        3.3649242E-18
   73.19900        3.3621629E-18
   73.36050        3.3587425E-18
   73.52200        3.3554406E-18
   73.68350        3.3531844E-18
   73.84500        3.3525701E-18
   74.00650        3.3535900E-18
   74.16800        3.3557013E-18
   74.32950        3.3581694E-18
   74.49100        3.3604562E-18
   74.65250        3.3624286E-18
   74.81400        3.3642908E-18
   74.97550        3.3663350E-18
   75.13700        3.3687139E-18
   75.29850        3.3713642E-18
   75.46000        3.3740850E-18
   75.62150        3.3766567E-18
   75.78300        3.3788878E-18
   75.94450        3.3805786E-18
   76.10600        3.3814995E-18
   76.26750        3.3814385E-18
   76.42900        3.3803395E-18
   76.59050        3.3784192E-18
   76.75200        3.3761540E-18
   76.91350        3.3740894E-18
   77.07500        3.3725494E-18
   77.23650        3.3714407E-18
   77.39800        3.3702928E-18
   77.55950        3.3685419E-18
   77.72100        3.3658918E-18
   77.88250        3.3625217E-18
   78.04400        3.3590070E-18
   78.20550        3.3560250E-18
   78.36700        3.3540433E-18
   78.52850        3.3531696E-18
   78.69000        3.3532229E-18
   78.85150        3.3539262E-18
   79.01300        3.3550584E-18
   79.17450        3.3564743E-18
   79.33600        3.3580257E-18
   79.49750        3.3595060E-18
   79.65900        3.3607219E-18
   79.82050        3.3616614E-18
   79.98200        3.3626139E-18
   80.14350        3.3640755E-18
   80.30500        3.3664336E-18
   80.46650        3.3696158E-18
   80.62800        3.3729665E-18
   80.78950        3.3754937E-18
   80.95100        3.3763937E-18
   81.11250        3.3755510E-18
   81.27400        3.3736925E-18
   81.43550        3.3720586E-18
   81.59700        3.3717342E-18
   81.75850        3.3730273E-18
   81.92000        3.3752586E-18
   82.08150        3.3771121E-18
   82.24300        3.3773545E-18
   82.40450        3.3755158E-18
   82.56600        3.3721571E-18
   82.72750        3.3685820E-18
   82.88900        3.3661788E-18
   83.05050        3.3657340E-18
   83.21200        3.3670666E-18
   83.37350        3.3691356E-18
   83.53500        3.3705410E-18
   83.69650        3.3701712E-18
   83.85800        3.3676878E-18
   84.01950        3.3636578E-18
   84.18100        3.3592921E-18
   84.34250        3.3559133E-18
   84.50400        3.3543816E-18
   84.66550        3.3547007E-18
   84.82700        3.3559840E-18
   84.98850        3.3568245E-18
   85.15000        3.3559441E-18
   85.31150        3.3528401E-18
   85.47300        3.3481080E-18
   85.63450        3.3432463E-18
   85.79600        3.3399928E-18
   85.95750        3.3394938E-18
   86.11900        3.3417265E-18
   86.28050        3.3454875E-18
   86.44200        3.3489902E-18
   86.60350        3.3507893E-18
   86.76500        3.3505441E-18
   86.92650        3.3492067E-18
   87.08800        3.3485080E-18
   87.24950        3.3500128E-18
   87.41100        3.3542414E-18
   87.57250        3.3603431E-18
   87.73400        3.3664963E-18
   87.89550        3.3708245E-18
   88.05700        3.3723525E-18
   88.21850        3.3714912E-18
   88.38000        3.3697955E-18
   88.54150        3.3691130E-18
   88.70300        3.3705790E-18
   88.86450        3.3739897E-18
   89.02600        3.3778849E-18
   89.18750        3.3803007E-18
   89.34900        3.3797837E-18
   89.51050        3.3761550E-18
   89.67200        3.3706162E-18
   89.83350        3.3651509E-18
   89.99500        3.3615344E-18
   90.15650        3.3604578E-18
   90.31800        3.3612317E-18
   90.47950        3.3622195E-18
   90.64100        3.3617499E-18
   90.80250        3.3590334E-18
   90.96400        3.3545942E-18
   91.12550        3.3500050E-18
   91.28700        3.3470672E-18
   91.44850        3.3468633E-18
   91.61000        3.3491755E-18
   91.77150        3.3525717E-18
   91.93300        3.3551246E-18
   92.09450        3.3553980E-18
   92.25600        3.3531989E-18
   92.41750        3.3497020E-18
   92.57900        3.3468770E-18
   92.74050        3.3464921E-18
   92.90200        3.3491796E-18
   93.06350        3.3540460E-18
   93.22500        3.3590523E-18
   93.38650        3.3620063E-18
   93.54800        3.3616899E-18
   93.70950        3.3585326E-18
   93.87100        3.3544482E-18
   94.03250        3.3518792E-18
   94.19400        3.3525051E-18
   94.35550        3.3562853E-18
   94.51700        3.3613669E-18
   94.67850        3.3649563E-18
   94.84000        3.3647464E-18
   95.00150        3.3601712E-18
   95.16300        3.3528112E-18
   95.32450        3.3456840E-18
   95.48600        3.3417809E-18
   95.64750        3.3425798E-18
   95.80900        3.3473276E-18
   95.97050        3.3534682E-18
   96.13200        3.3579908E-18
   96.29350        3.3589979E-18
   96.45500        3.3566646E-18
   96.61650        3.3530949E-18
   96.77800        3.3511537E-18
   96.93950        3.3528933E-18
   97.10100        3.3584176E-18
   97.26250        3.3657698E-18
   97.42400        3.3718918E-18
   97.58550        3.3741510E-18
   97.74700        3.3716461E-18
   97.90850        3.3656416E-18
   98.07000        3.3589228E-18
   98.23150        3.3544101E-18
   98.39300        3.3537397E-18
   98.55450        3.3565089E-18
   98.71600        3.3605406E-18
   98.87750        3.3630103E-18
   99.03900        3.3618502E-18
   99.20050        3.3567424E-18
   99.36200        3.3492537E-18
   99.52350        3.3420700E-18
   99.68500        3.3377255E-18
   99.84650        3.3374372E-18
   100.0080        3.3405879E-18
   100.1695        3.3450837E-18
   100.3310        3.3484052E-18
   100.4925        3.3488345E-18
   100.6540        3.3462738E-18
   100.8155        3.3422785E-18
   100.9770        3.3392826E-18
   101.1385        3.3393852E-18
   101.3000        3.3432651E-18
   101.4615        3.3497740E-18
   101.6230        3.3564367E-18
   101.7845        3.3606361E-18
   101.9460        3.3608896E-18
   102.1075        3.3575737E-18
   102.2690        3.3526871E-18
   102.4305        3.3487801E-18
   102.5920        3.3476022E-18
   102.7535        3.3492138E-18
   102.9150        3.3520415E-18
   103.0765        3.3538483E-18
   103.2380        3.3530748E-18
   103.3995        3.3497696E-18
   103.5610        3.3455814E-18
   103.7225        3.3428217E-18
   103.8840        3.3431611E-18
   104.0455        3.3467107E-18
   104.2070        3.3519883E-18
   104.3685        3.3567409E-18
   104.5300        3.3591155E-18
   104.6915        3.3585204E-18
   104.8530        3.3557489E-18
   105.0145        3.3523910E-18
   105.1760        3.3499349E-18
   105.3375        3.3490862E-18
   105.4990        3.3496073E-18
   105.6605        3.3506533E-18
   105.8220        3.3513165E-18
   105.9835        3.3510702E-18
   106.1450        3.3499334E-18
   106.3065        3.3483729E-18
   106.4680        3.3470451E-18
   106.6295        3.3465056E-18
   106.7910        3.3469630E-18
   106.9525        3.3481556E-18
   107.1140        3.3494098E-18
   107.2755        3.3499045E-18
   107.4370        3.3490684E-18
   107.5985        3.3469394E-18
   107.7600        3.3442705E-18
   107.9215        3.3422429E-18
   108.0830        3.3418717E-18
   108.2445        3.3434068E-18
   108.4060        3.3461089E-18
   108.5675        3.3485861E-18
   108.7290        3.3495610E-18
   108.8905        3.3486263E-18
   109.0520        3.3465333E-18
   109.2135        3.3448024E-18
   109.3750        3.3448618E-18
   109.5365        3.3472017E-18
   109.6980        3.3510363E-18
   109.8595        3.3547009E-18
   110.0210        3.3565550E-18
   110.1825        3.3558811E-18
   110.3440        3.3532607E-18
   110.5055        3.3502159E-18
   110.6670        3.3483461E-18
   110.8285        3.3484610E-18
   110.9900        3.3501882E-18
   111.1515        3.3522446E-18
   111.3130        3.3531836E-18
   111.4745        3.3521912E-18
   111.6360        3.3494905E-18
   111.7975        3.3461629E-18
   111.9590        3.3434977E-18
   112.1205        3.3422770E-18
   112.2820        3.3423761E-18
   112.4435        3.3429034E-18
   112.6050        3.3427609E-18
   112.7665        3.3413012E-18
   112.9280        3.3387108E-18
   113.0895        3.3359408E-18
   113.2510        3.3342188E-18
   113.4125        3.3344352E-18
   113.5740        3.3367053E-18
   113.7355        3.3403443E-18
   113.8970        3.3442317E-18
   114.0585        3.3473468E-18
   114.2200        3.3491939E-18
   114.3815        3.3499098E-18
   114.5430        3.3500531E-18
   114.7045        3.3502248E-18
   114.8660        3.3507321E-18
   115.0275        3.3514527E-18
   115.1890        3.3519542E-18
   115.3505        3.3517911E-18
   115.5120        3.3508146E-18
   115.6735        3.3493143E-18
   115.8350        3.3479099E-18
   115.9965        3.3472391E-18
   116.1580        3.3475989E-18
   116.3195        3.3487402E-18
   116.4810        3.3499431E-18
   116.6425        3.3503809E-18
   116.8040        3.3496054E-18
   116.9655        3.3478804E-18
   117.1270        3.3461265E-18
   117.2885        3.3454385E-18
   117.4500        3.3464222E-18
   117.6115        3.3487404E-18
   117.7730        3.3511965E-18
   117.9345        3.3523668E-18
   118.0960        3.3514536E-18
   118.2575        3.3488461E-18
   118.4190        3.3460126E-18
   118.5805        3.3447094E-18
   118.7420        3.3459230E-18