  -27.90000       -1.7126658E-18
  -27.73850       -1.7147361E-18
  -27.57700       -1.7181036E-18
  -27.41550       -1.7216028E-18
  -27.25400       -1.7241863E-18
  -27.09250       -1.7253669E-18
  -26.93100       -1.7254056E-18
  -26.76950       -1.7251531E-18
  -26.60800       -1.7256320E-18
  -26.44650       -1.7275404E-18
  -26.28500       -1.7309144E-18
  -26.12350       -1.7350961E-18
  -25.96200       -1.7390236E-18
  -25.80050       -1.7417067E-18
  -25.63900       -1.7426758E-18
  -25.47750       -1.7421937E-18
  -25.31600       -1.7411395E-18
  -25.15450       -1.7406153E-18
  -24.99300       -1.7414549E-18
  -24.83150       -1.7438611E-18
  -24.67000       -1.7473210E-18
  -24.50850       -1.7508467E-18
  -24.34700       -1.7534225E-18
  -24.18550       -1.7544563E-18
  -24.02400       -1.7540392E-18
  -23.86250       -1.7528931E-18
  -23.70100       -1.7520422E-18
  -23.53950       -1.7523501E-18
  -23.37800       -1.7541428E-18
  -23.21650       -1.7570700E-18
  -23.05500       -1.7602714E-18
  -22.89350       -1.7627637E-18
  -22.73200       -1.7638787E-18
  -22.57050       -1.7635567E-18
  -22.40900       -1.7623681E-18
  -22.24750       -1.7612522E-18
  -22.08600       -1.7610961E-18
  -21.92450       -1.7623352E-18
  -21.76300       -1.7647603E-18
  -21.60150       -1.7676101E-18
  -21.44000       -1.7699146E-18
  -21.27850       -1.7709358E-18
  -21.11700       -1.7704999E-18
  -20.95550       -1.7690872E-18
  -20.79400       -1.7676190E-18
  -20.63250       -1.7670507E-18
  -20.47100       -1.7679464E-18
  -20.30950       -1.7702298E-18
  -20.14800       -1.7732232E-18
  -19.98650       -1.7759508E-18
  -19.82500       -1.7775737E-18
  -19.66350       -1.7777489E-18
  -19.50200       -1.7767645E-18
  -19.34050       -1.7753868E-18
  -19.17900       -1.7745045E-18
  -19.01750       -1.7747301E-18
  -18.85600       -1.7761404E-18
  -18.69450       -1.7782615E-18
  -18.53300       -1.7802986E-18
  -18.37150       -1.7815028E-18
  -18.21000       -1.7815026E-18
  -18.04850       -1.7804732E-18
  -17.88700       -1.7790633E-18
  -17.72550       -1.7781186E-18
  -17.56400       -1.7783273E-18
  -17.40250       -1.7799306E-18
  -17.24100       -1.7826205E-18
  -17.07950       -1.7856646E-18
  -16.91800       -1.7882119E-18
  -16.75650       -1.7896472E-18
  -16.59500       -1.7898447E-18
  -16.43350       -1.7892111E-18
  -16.27200       -1.7884939E-18
  -16.11050       -1.7884437E-18
  -15.94900       -1.7894708E-18
  -15.78750       -1.7914581E-18
  -15.62600       -1.7938113E-18
  -15.46450       -1.7957343E-18
  -15.30300       -1.7965924E-18
  -15.14150       -1.7962107E-18
  -14.98000       -1.7949619E-18
  -14.81850       -1.7936111E-18
  -14.65700       -1.7929816E-18
  -14.49550       -1.7936030E-18
  -14.33400       -1.7954861E-18
  -14.17250       -1.7981279E-18
  -14.01100       -1.8007304E-18
  -13.84950       -1.8025366E-18
  -13.68800       -1.8031338E-18
  -13.52650       -1.8026125E-18
  -13.36500       -1.8015047E-18
  -13.20350       -1.8005540E-18
  -13.04200       -1.8004035E-18
  -12.88050       -1.8013291E-18
  -12.71900       -1.8031278E-18
  -12.55750       -1.8052017E-18
  -12.39600       -1.8068028E-18
  -12.23450       -1.8073487E-18
  -12.07300       -1.8066760E-18
  -11.91150       -1.8051316E-18
  -11.75000       -1.8034487E-18
  -11.58850       -1.8024563E-18
  -11.42700       -1.8027279E-18
  -11.26550       -1.8043291E-18
  -11.10400       -1.8067662E-18
  -10.94250       -1.8091910E-18
  -10.78100       -1.8107676E-18
  -10.61950       -1.8110613E-18
  -10.45800       -1.8102595E-18
  -10.29650       -1.8091203E-18
  -10.13500       -1.8086461E-18
  -9.973500       -1.8096290E-18
  -9.812000       -1.8122601E-18
  -9.650500       -1.8159996E-18
  -9.489000       -1.8197785E-18
  -9.327500       -1.8224536E-18
  -9.166000       -1.8233156E-18
  -9.004500       -1.8224123E-18
  -8.843000       -1.8205360E-18
  -8.681500       -1.8188701E-18
  -8.520000       -1.8184503E-18
  -8.358500       -1.8196944E-18
  -8.197000       -1.8222049E-18
  -8.035500       -1.8249538E-18
  -7.874000       -1.8267504E-18
  -7.712500       -1.8267951E-18
  -7.551000       -1.8250599E-18
  -7.389500       -1.8223308E-18
  -7.228000       -1.8198859E-18
  -7.066500       -1.8189511E-18
  -6.905000       -1.8201640E-18
  -6.743500       -1.8232849E-18
  -6.582000       -1.8272792E-18
  -6.420500       -1.8307540E-18
  -6.259000       -1.8325570E-18
  -6.097500       -1.8322944E-18
  -5.936000       -1.8305253E-18
  -5.774500       -1.8285342E-18
  -5.613000       -1.8277629E-18
  -5.451500       -1.8291439E-18
  -5.290000       -1.8326321E-18
  -5.128500       -1.8371781E-18
  -4.967000       -1.8411694E-18
  -4.805500       -1.8431697E-18
  -4.644000       -1.8426060E-18
  -4.482500       -1.8400786E-18
  -4.321000       -1.8371096E-18
  -4.159500       -1.8354412E-18
  -3.998000       -1.8361983E-18
  -3.836500       -1.8393232E-18
  -3.675000       -1.8435637E-18
  -3.513500       -1.8470399E-18
  -3.352000       -1.8481217E-18
  -3.190500       -1.8461997E-18
  -3.029000       -1.8419834E-18
  -2.867500       -1.8371741E-18
  -2.706000       -1.8336857E-18
  -2.544500       -1.8327766E-18
  -2.383000       -1.8345009E-18
  -2.221500       -1.8377224E-18
  -2.060000       -1.8406686E-18
  -1.898500       -1.8417518E-18
  -1.737000       -1.8402843E-18
  -1.575500       -1.8367730E-18
  -1.414000       -1.8326743E-18
  -1.252500       -1.8297440E-18
  -1.091000       -1.8292657E-18
 -0.9295000       -1.8314997E-18
 -0.7680000       -1.8355715E-18
 -0.6065000       -1.8398494E-18
 -0.4450000       -1.8426497E-18
 -0.2835000       -1.8429601E-18
 -0.1220000       -1.8408952E-18
  3.9500002E-02   -1.8376682E-18
  0.2010000       -1.8350783E-18
  0.3625000       -1.8347271E-18
  0.5240000       -1.8372922E-18
  0.6855000       -1.8421887E-18
  0.8470000       -1.8477850E-18
   1.008500       -1.8520994E-18
   1.170000       -1.8536861E-18
   1.331500       -1.8523089E-18
   1.493000       -1.8490837E-18
   1.654500       -1.8460037E-18
   1.816000       -1.8450489E-18
   1.977500       -1.8472819E-18
   2.139000       -1.8523500E-18
   2.300500       -1.8586308E-18
   2.462000       -1.8639582E-18
   2.623500       -1.8666069E-18
   2.785000       -1.8660742E-18
   2.946500       -1.8633077E-18
   3.108000       -1.8602763E-18
   3.269500       -1.8590748E-18
   3.431000       -1.8609738E-18
   3.592500       -1.8658390E-18
   3.754000       -1.8721680E-18
   3.915500       -1.8777337E-18
   4.077000       -1.8805370E-18
   4.238500       -1.8796697E-18
   4.400000       -1.8757148E-18
   4.561500       -1.8705095E-18
   4.723000       -1.8663718E-18
   4.884500       -1.8651180E-18
   5.046000       -1.8672750E-18
   5.207500       -1.8718394E-18
   5.369000       -1.8766927E-18
   5.530500       -1.8795148E-18
   5.692000       -1.8788175E-18
   5.853500       -1.8746471E-18
   6.015000       -1.8686264E-18
   6.176500       -1.8632822E-18
   6.338000       -1.8609310E-18
   6.499500       -1.8626077E-18
   6.661000       -1.8675315E-18
   6.822500       -1.8733887E-18
   6.984000       -1.8773338E-18
   7.145500       -1.8772864E-18
   7.307000       -1.8729298E-18
   7.468500       -1.8659276E-18
   7.630000       -1.8592301E-18
   7.791500       -1.8557615E-18
   7.953000       -1.8570786E-18
   8.114500       -1.8626213E-18
   8.276000       -1.8699193E-18
   8.437500       -1.8756753E-18
   8.599000       -1.8772417E-18
   8.760500       -1.8738240E-18
   8.922000       -1.8668598E-18
   9.083500       -1.8593972E-18
   9.245000       -1.8547490E-18
   9.406500       -1.8550247E-18
   9.568000       -1.8601877E-18
   9.729500       -1.8680658E-18
   9.891000       -1.8753010E-18
   10.05250       -1.8788305E-18
   10.21400       -1.8772599E-18
   10.37550       -1.8715199E-18
   10.53700       -1.8645139E-18
   10.69850       -1.8598842E-18
   10.86000       -1.8604194E-18
   11.02150       -1.8667752E-18
   11.18300       -1.8770939E-18
   11.34450       -1.8877167E-18
   11.50600       -1.8947287E-18
   11.66750       -1.8956846E-18
   11.82900       -1.8907533E-18
   11.99050       -1.8827357E-18
   12.15200       -1.8758852E-18
   12.31350       -1.8740137E-18
   12.47500       -1.8787071E-18
   12.63650       -1.8884932E-18
   12.79800       -1.8993837E-18
   12.95950       -1.9066128E-18
   13.12100       -1.9068134E-18
   13.28250       -1.8996360E-18
   13.44400       -1.8880338E-18
   13.60550       -1.8770198E-18
   13.76700       -1.8714376E-18
   13.92850       -1.8737401E-18
   14.09000       -1.8828140E-18
   14.25150       -1.8944235E-18
   14.41300       -1.9031019E-18
   14.57450       -1.9046543E-18
   14.73600       -1.8981243E-18
   14.89750       -1.8863238E-18
   15.05900       -1.8746415E-18
   15.22050       -1.8686546E-18
   15.38200       -1.8715999E-18
   15.54350       -1.8828442E-18
   15.70500       -1.8980656E-18
   15.86650       -1.9110920E-18
   16.02800       -1.9166242E-18
   16.18950       -1.9126202E-18
   16.35100       -1.9012879E-18
   16.51250       -1.8881804E-18
   16.67400       -1.8797568E-18
   16.83550       -1.8804628E-18
   16.99700       -1.8906286E-18
   17.15850       -1.9061730E-18
   17.32000       -1.9203199E-18
   17.48150       -1.9266186E-18
   17.64300       -1.9219312E-18
   17.80450       -1.9080097E-18
   17.96600       -1.8908687E-18
   18.12750       -1.8781572E-18
   18.28900       -1.8756767E-18
   18.45050       -1.8846380E-18
   18.61200       -1.9009591E-18
   18.77350       -1.9170151E-18
   18.93500       -1.9250968E-18
   19.09650       -1.9210105E-18
   19.25800       -1.9061380E-18
   19.41950       -1.8869419E-18
   19.58100       -1.8720898E-18
   19.74250       -1.8684904E-18
   19.90400       -1.8780592E-18
   20.06550       -1.8967435E-18
   20.22700       -1.9162902E-18
   20.38850       -1.9279837E-18
   20.55000       -1.9266501E-18
   20.71150       -1.9130816E-18
   20.87300       -1.8937442E-18
   21.03450       -1.8778754E-18
   21.19600       -1.8732721E-18
   21.35750       -1.8826900E-18
   21.51900       -1.9025003E-18
   21.68050       -1.9242496E-18
   21.84200       -1.9384485E-18
   22.00350       -1.9388795E-18
   22.16500       -1.9254802E-18
   22.32650       -1.9044554E-18
   22.48800       -1.8855282E-18
   22.64950       -1.8775410E-18
   22.81100       -1.8843880E-18
   22.97250       -1.9031517E-18
   23.13400       -1.9253338E-18
   23.29550       -1.9406770E-18
   23.45700       -1.9418671E-18
   23.61850       -1.9279669E-18
   23.78000       -1.9049713E-18
   23.94150       -1.8831701E-18
   24.10300       -1.8724879E-18
   24.26450       -1.8779242E-18
   24.42600       -1.8972082E-18
   24.58750       -1.9217761E-18
   24.74900       -1.9406681E-18
   24.91050       -1.9455536E-18
   25.07200       -1.9345778E-18
   25.23350       -1.9132340E-18
   25.39500       -1.8918551E-18
   25.55650       -1.8808613E-18
   25.71800       -1.8859722E-18
   25.87950       -1.9055685E-18
   26.04100       -1.9314113E-18
   26.20250       -1.9523776E-18
   26.36400       -1.9594988E-18
   26.52550       -1.9500121E-18
   26.68700       -1.9285921E-18
   26.84850       -1.9052321E-18
   27.01000       -1.8907368E-18
   27.17150       -1.8918686E-18
   27.33300       -1.9083179E-18
   27.49450       -1.9328396E-18
   27.65600       -1.9545033E-18
   27.81750       -1.9635957E-18
   27.97900       -1.9559988E-18
   28.14050       -1.9350786E-18
   28.30200       -1.9102278E-18
   28.46350       -1.8926767E-18
   28.62500       -1.8904415E-18
   28.78650       -1.9046653E-18
   28.94800       -1.9290330E-18
   29.10950       -1.9525596E-18
   29.27100       -1.9645283E-18
   29.43250       -1.9593619E-18
   29.59400       -1.9392040E-18
   29.75550       -1.9130016E-18
   29.91700       -1.8924759E-18
   30.07850       -1.8867990E-18
   30.24000       -1.8984074E-18
   30.40150       -1.9218843E-18
   30.56300       -1.9464271E-18
   30.72450       -1.9607731E-18
   30.88600       -1.9583360E-18
   31.04750       -1.9401997E-18
   31.20900       -1.9146171E-18
   31.37050       -1.8932595E-18
   31.53200       -1.8859391E-18
   31.69350       -1.8962009E-18
   31.85500       -1.9197605E-18
   32.01650       -1.9464606E-18
   32.17800       -1.9648416E-18
   32.33950       -1.9672570E-18
   32.50100       -1.9532567E-18
   32.66250       -1.9297437E-18
   32.82400       -1.9078623E-18
   32.98550       -1.8979957E-18
   33.14700       -1.9051099E-18
   33.30850       -1.9265055E-18
   33.47000       -1.9529873E-18
   33.63150       -1.9729498E-18
   33.79300       -1.9775829E-18
   33.95450       -1.9648662E-18
   34.11600       -1.9405554E-18
   34.27750       -1.9156699E-18
   34.43900       -1.9015658E-18
   34.60050       -1.9047986E-18
   34.76200       -1.9241036E-18
   34.92350       -1.9509032E-18
   35.08500       -1.9731533E-18
   35.24650       -1.9807998E-18
   35.40800       -1.9703686E-18
   35.56950       -1.9465710E-18
   35.73100       -1.9201770E-18
   35.89250       -1.9031172E-18
   36.05400       -1.9030582E-18
   36.21550       -1.9199336E-18
   36.37700       -1.9460204E-18
   36.53850       -1.9695042E-18
   36.70000       -1.9798878E-18
   36.86150       -1.9727579E-18
   37.02300       -1.9517529E-18
   37.18450       -1.9268715E-18
   37.34600       -1.9099087E-18
   37.50750       -1.9091126E-18
   37.66900       -1.9254726E-18
   37.83050       -1.9522809E-18
   37.99200       -1.9781501E-18
   38.15350       -1.9921024E-18
   38.31500       -1.9884620E-18
   38.47650       -1.9693593E-18
   38.63800       -1.9437479E-18
   38.79950       -1.9233672E-18
   38.96100       -1.9174545E-18
   39.12250       -1.9285747E-18
   39.28400       -1.9514483E-18
   39.44550       -1.9753278E-18
   39.60700       -1.9888760E-18
   39.76850       -1.9853503E-18
   39.93000       -1.9657271E-18
   40.09150       -1.9383224E-18
   40.25300       -1.9150410E-18
   40.41450       -1.9059612E-18
   40.57600       -1.9147265E-18
   40.73750       -1.9368831E-18
   40.89900       -1.9619434E-18
   41.06050       -1.9782204E-18
   41.22200       -1.9782068E-18
   41.38350       -1.9619992E-18
   41.54500       -1.9372109E-18
   41.70650       -1.9154333E-18
   41.86800       -1.9069193E-18
   42.02950       -1.9159244E-18
   42.19100       -1.9388417E-18
   42.35250       -1.9659155E-18
   42.51400       -1.9857062E-18
   42.67550       -1.9902336E-18
   42.83700       -1.9784826E-18
   42.99850       -1.9567263E-18
   43.16000       -1.9355950E-18
   43.32150       -1.9252478E-18
   43.48300       -1.9308240E-18
   43.64450       -1.9501881E-18
   43.80600       -1.9749473E-18
   43.96750       -1.9942597E-18
   44.12900       -1.9997286E-18
   44.29050       -1.9892004E-18
   44.45200       -1.9677560E-18
   44.61350       -1.9454378E-18
   44.77500       -1.9327106E-18
   44.93650       -1.9356887E-18
   45.09800       -1.9532975E-18
   45.25950       -1.9776919E-18
   45.42100       -1.9977806E-18
   45.58250       -2.0042820E-18
   45.74400       -1.9939929E-18
   45.90550       -1.9712895E-18
   46.06700       -1.9461455E-18
   46.22850       -1.9295717E-18
   46.39000       -1.9285828E-18
   46.55150       -1.9430299E-18
   46.71300       -1.9657577E-18
   46.87450       -1.9859850E-18
   47.03600       -1.9943304E-18
   47.19750       -1.9871263E-18
   47.35900       -1.9680486E-18
   47.52050       -1.9463477E-18
   47.68200       -1.9325334E-18
   47.84350       -1.9335380E-18
   48.00500       -1.9495578E-18
   48.16650       -1.9739929E-18
   48.32800       -1.9964649E-18
   48.48950       -2.0075148E-18
   48.65100       -2.0028559E-18
   48.81250       -1.9852597E-18
   48.97400       -1.9632497E-18
   49.13550       -1.9471939E-18
   49.29700       -1.9445837E-18
   49.45850       -1.9566263E-18
   49.62000       -1.9777043E-18
   49.78150       -1.9979630E-18
   49.94300       -2.0078473E-18
   50.10450       -2.0025199E-18
   50.26600       -1.9841077E-18
   50.42750       -1.9607249E-18
   50.58900       -1.9427091E-18
   50.75050       -1.9378286E-18
   50.91200       -1.9477014E-18
   51.07350       -1.9671066E-18
   51.23500       -1.9864980E-18
   51.39650       -1.9965210E-18
   51.55800       -1.9923909E-18
   51.71950       -1.9760828E-18
   51.88100       -1.9553330E-18
   52.04250       -1.9399695E-18
   52.20400       -1.9373403E-18
   52.36550       -1.9489610E-18
   52.52700       -1.9699116E-18
   52.68850       -1.9911741E-18
   52.85000       -2.0037718E-18
   53.01150       -2.0027852E-18
   53.17300       -1.9894430E-18
   53.33450       -1.9704114E-18
   53.49600       -1.9546793E-18
   53.65750       -1.9494939E-18
   53.81900       -1.9571745E-18
   53.98050       -1.9741993E-18
   54.14200       -1.9929118E-18
   54.30350       -2.0050418E-18
   54.46500       -2.0054489E-18
   54.62650       -1.9944075E-18
   54.78800       -1.9774257E-18
   54.94950       -1.9626996E-18
   55.11100       -1.9573515E-18
   55.27250       -1.9641755E-18
   55.43400       -1.9803705E-18
   55.59550       -1.9988307E-18
   55.75700       -2.0113964E-18
   55.91850       -2.0125631E-18
   56.08000       -2.0019506E-18
   56.24150       -1.9844204E-18
   56.40300       -1.9678157E-18
   56.56450       -1.9593952E-18
   56.72600       -1.9626004E-18
   56.88750       -1.9756179E-18
   57.04900       -1.9923263E-18
   57.21050       -2.0051365E-18
   57.37200       -2.0083987E-18
   57.53350       -2.0008533E-18
   57.69500       -1.9860805E-18
   57.85650       -1.9708159E-18
   58.01800       -1.9619281E-18
   58.17950       -1.9633984E-18
   58.34100       -1.9746073E-18
   58.50250       -1.9906401E-18
   58.66400       -2.0044559E-18
   58.82550       -2.0099751E-18
   58.98700       -2.0047473E-18
   59.14850       -1.9910579E-18
   59.31000       -1.9749686E-18
   59.47150       -1.9636900E-18
   59.63300       -1.9623977E-18
   59.79450       -1.9719018E-18
   59.95600       -1.9882235E-18
   60.11750       -2.0043161E-18
   60.27900       -2.0131973E-18
   60.44050       -2.0110963E-18
   60.60200       -1.9991872E-18
   60.76350       -1.9830933E-18
   60.92500       -1.9703628E-18
   61.08650       -1.9670471E-18
   61.24800       -1.9749427E-18
   61.40950       -1.9907599E-18
   61.57100       -2.0076044E-18
   61.73250       -2.0180912E-18
   61.89400       -2.0176662E-18
   62.05550       -2.0066405E-18
   62.21700       -1.9900204E-18
   62.37850       -1.9752391E-18
   62.54000       -1.9688098E-18
   62.70150       -1.9733963E-18
   62.86300       -1.9866113E-18
   63.02450       -2.0020734E-18
   63.18600       -2.0122678E-18
   63.34750       -2.0119450E-18
   63.50900       -2.0005510E-18
   63.67050       -1.9825921E-18
   63.83200       -1.9657399E-18
   63.99350       -1.9574754E-18
   64.15500       -1.9617488E-18
   64.31650       -1.9771662E-18
   64.47800       -1.9975560E-18
   64.63950       -2.0147129E-18
   64.80100       -2.0220982E-18
   64.96250       -2.0177963E-18
   65.12400       -2.0053484E-18
   65.28550       -1.9920558E-18
   65.44700       -1.9855234E-18
   65.60850       -1.9900654E-18
   65.77000       -2.0046455E-18
   65.93150       -2.0233272E-18
   66.09300       -2.0380092E-18
   66.25450       -2.0421470E-18
   66.41600       -2.0337228E-18
   66.57750       -2.0161059E-18
   66.73900       -1.9964705E-18
   66.90050       -1.9825600E-18
   67.06200       -1.9793057E-18
   67.22350       -1.9868024E-18
   67.38500       -2.0004654E-18
   67.54650       -2.0132139E-18
   67.70800       -2.0186460E-18
   67.86950       -2.0138130E-18
   68.03100       -2.0004342E-18
   68.19250       -1.9841002E-18
   68.35400       -1.9718511E-18
   68.51550       -1.9691696E-18
   68.67700       -1.9776337E-18
   68.83850       -1.9942001E-18
   69.00000       -2.0124277E-18
   69.16150       -2.0251592E-18
   69.32300       -2.0275607E-18
   69.48450       -2.0192184E-18
   69.64600       -2.0043610E-18
   69.80750       -1.9900572E-18
   69.96900       -1.9831167E-18
   70.13050       -1.9870365E-18
   70.29200       -2.0003578E-18
   70.45350       -2.0172179E-18
   70.61500       -2.0299018E-18
   70.77650       -2.0322893E-18
   70.93800       -2.0226659E-18
   71.09950       -2.0046158E-18
   71.26100       -1.9855691E-18
   71.42250       -1.9736174E-18
   71.58400       -1.9739805E-18
   71.74550       -1.9866713E-18
   71.90700       -2.0063901E-18
   72.06850       -2.0247316E-18
   72.23000       -2.0338014E-18
   72.39150       -2.0297116E-18
   72.55300       -2.0144216E-18
   72.71450       -1.9950614E-18
   72.87600       -1.9809166E-18
   73.03750       -1.9792995E-18
   73.19900       -1.9920904E-18
   73.36050       -2.0145663E-18
   73.52200       -2.0372003E-18
   73.68350       -2.0498152E-18
   73.84500       -2.0463191E-18
   74.00650       -2.0278068E-18
   74.16800       -2.0024479E-18
   74.32950       -1.9819764E-18
   74.49100       -1.9762712E-18
   74.65250       -1.9885387E-18
   74.81400       -2.0134765E-18
   74.97550       -2.0394688E-18
   75.13700       -2.0539476E-18
   75.29850       -2.0494283E-18
   75.46000       -2.0272981E-18
   75.62150       -1.9974240E-18
   75.78300       -1.9736281E-18
   75.94450       -1.9671250E-18
   76.10600       -1.9810701E-18
   76.26750       -2.0088817E-18
   76.42900       -2.0372286E-18
   76.59050       -2.0523207E-18
   76.75200       -2.0465292E-18
   76.91350       -2.0221683E-18
   77.07500       -1.9905740E-18
   77.23650       -1.9668384E-18
   77.39800       -1.9626490E-18
   77.55950       -1.9806228E-18
   77.72100       -2.0128727E-18
   77.88250       -2.0445769E-18
   78.04400       -2.0609362E-18
   78.20550       -2.0542578E-18
   78.36700       -2.0277625E-18
   78.52850       -1.9942102E-18
   78.69000       -1.9698806E-18
   78.85150       -1.9667369E-18
   79.01300       -1.9865450E-18
   79.17450       -2.0198781E-18
   79.33600       -2.0505812E-18
   79.49750       -2.0635995E-18
   79.65900       -2.0523730E-18
   79.82050       -2.0221402E-18
   79.98200       -1.9874873E-18
   80.14350       -1.9652947E-18
   80.30500       -1.9665216E-18
   80.46650       -1.9908769E-18
   80.62800       -2.0269980E-18
   80.78950       -2.0580322E-18
   80.95100       -2.0698578E-18
   81.11250       -2.0578978E-18
   81.27400       -2.0292242E-18
   81.43550       -1.9989845E-18
   81.59700       -1.9829614E-18
   81.75850       -1.9899122E-18
   81.92000       -2.0173901E-18
   82.08150       -2.0530108E-18
   82.24300       -2.0804854E-18
   82.40450       -2.0874511E-18
   82.56600       -2.0713169E-18
   82.72750       -2.0403481E-18
   82.88900       -2.0095309E-18
   83.05050       -1.9932708E-18
   83.21200       -1.9984578E-18
   83.37350       -2.0212539E-18
   83.53500       -2.0491086E-18
   83.69650       -2.0670030E-18
   83.85800       -2.0648285E-18
   84.01950       -2.0423023E-18
   84.18100       -2.0090284E-18
   84.34250       -1.9797488E-18
   84.50400       -1.9671604E-18
   84.66550       -1.9758710E-18
   84.82700       -2.0004021E-18
   84.98850       -2.0281313E-18
   85.15000       -2.0455916E-18
   85.31150       -2.0449683E-18
   85.47300       -2.0276134E-18
   85.63450       -2.0030044E-18
   85.79600       -1.9838324E-18
   85.95750       -1.9797786E-18
   86.11900       -1.9930125E-18
   86.28050       -2.0174608E-18
   86.44200       -2.0419992E-18
   86.60350       -2.0558594E-18
   86.76500       -2.0536148E-18
   86.92650       -2.0374579E-18
   87.08800       -2.0158636E-18
   87.24950       -1.9994258E-18
   87.41100       -1.9959115E-18
   87.57250       -2.0068105E-18
   87.73400       -2.0268828E-18
   87.89550       -2.0467937E-18
   88.05700       -2.0575257E-18
   88.21850       -2.0545125E-18
   88.38000       -2.0396167E-18
   88.54150       -2.0200847E-18
   88.70300       -2.0050440E-18
   88.86450       -2.0012181E-18
   89.02600       -2.0098936E-18
   89.18750       -2.0265137E-18
   89.34900       -2.0430205E-18
   89.51050       -2.0517551E-18
   89.67200       -2.0490246E-18
   89.83350       -2.0366787E-18
   89.99500       -2.0210372E-18
   90.15650       -2.0097770E-18
   90.31800       -2.0083343E-18
   90.47950       -2.0174948E-18
   90.64100       -2.0332186E-18
   90.80250       -2.0486393E-18
   90.96400       -2.0572189E-18
   91.12550       -2.0555957E-18
   91.28700       -2.0449197E-18
   91.44850       -2.0301802E-18
   91.61000       -2.0179236E-18
   91.77150       -2.0133812E-18
   91.93300       -2.0182506E-18
   92.09450       -2.0300418E-18
   92.25600       -2.0432381E-18
   92.41750       -2.0517580E-18
   92.57900       -2.0516569E-18
   92.74050       -2.0429010E-18
   92.90200       -2.0294039E-18
   93.06350       -2.0172772E-18
   93.22500       -2.0120318E-18
   93.38650       -2.0160085E-18
   93.54800       -2.0272429E-18
   93.70950       -2.0403500E-18
   93.87100       -2.0490443E-18
   94.03250       -2.0491266E-18
   94.19400       -2.0405059E-18
   94.35550       -2.0272778E-18
   94.51700       -2.0157920E-18
   94.67850       -2.0116394E-18
   94.84000       -2.0169875E-18
   95.00150       -2.0295588E-18
   95.16300       -2.0437288E-18
   95.32450       -2.0531952E-18
   95.48600       -2.0539275E-18
   95.64750       -2.0459901E-18
   95.80900       -2.0334050E-18
   95.97050       -2.0221685E-18
   96.13200       -2.0173903E-18
   96.29350       -2.0209313E-18
   96.45500       -2.0306415E-18
   96.61650       -2.0415140E-18
   96.77800       -2.0481699E-18
   96.93950       -2.0474540E-18
   97.10100       -2.0399035E-18
   97.26250       -2.0294217E-18
   97.42400       -2.0213513E-18
   97.58550       -2.0199078E-18
   97.74700       -2.0261996E-18
   97.90850       -2.0377700E-18
   98.07000       -2.0498272E-18
   98.23150       -2.0575301E-18
   98.39300       -2.0581939E-18
   98.55450       -2.0523753E-18
   98.71600       -2.0433851E-18
   98.87750       -2.0355521E-18
   99.03900       -2.0321540E-18
   99.20050       -2.0340140E-18
   99.36200       -2.0393762E-18
   99.52350       -2.0450053E-18
   99.68500       -2.0478806E-18
   99.84650       -2.0466121E-18
   100.0080       -2.0419361E-18
   100.1695       -2.0361562E-18
   100.3310       -2.0319171E-18
   100.4925       -2.0309747E-18
   100.6540       -2.0335255E-18
   100.8155       -2.0383256E-18
   100.9770       -2.0434169E-18
   101.1385       -2.0470445E-18
   101.3000       -2.0483217E-18
   101.4615       -2.0474037E-18
   101.6230       -2.0452010E-18
   101.7845       -2.0428671E-18
   101.9460       -2.0413374E-18
   102.1075       -2.0410859E-18
   102.2690       -2.0421284E-18
   102.4305       -2.0441401E-18
   102.5920       -2.0465902E-18
   102.7535       -2.0488124E-18
   102.9150       -2.0500627E-18
   103.0765       -2.0496394E-18
   103.2380       -2.0471182E-18
   103.3995       -2.0426446E-18
   103.5610       -2.0371105E-18
   103.7225       -2.0320169E-18
   103.8840       -2.0289547E-18
   104.0455       -2.0288488E-18
   104.2070       -2.0313436E-18
   104.3685       -2.0347301E-18
   104.5300       -2.0366088E-18
   104.6915       -2.0350914E-18
   104.8530       -2.0299699E-18
   105.0145       -2.0231742E-18
   105.1760       -2.0181096E-18
   105.3375       -2.0180517E-18
   105.4990       -2.0243444E-18
   105.6605       -2.0353896E-18
   105.8220       -2.0470952E-18
   105.9835       -2.0547069E-18
   106.1450       -2.0551722E-18
   106.3065       -2.0488042E-18
   106.4680       -2.0393127E-18
   106.6295       -2.0320765E-18
   106.7910       -2.0314822E-18
   106.9525       -2.0386739E-18
   107.1140       -2.0508924E-18
   107.2755       -2.0627814E-18
   107.4370       -2.0690424E-18
   107.5985       -2.0671037E-18
   107.7600       -2.0584704E-18
   107.9215       -2.0480531E-18
   108.0830       -2.0417845E-18
   108.2445       -2.0436591E-18
   108.4060       -2.0536388E-18
   108.5675       -2.0674769E-18
   108.7290       -2.0786174E-18
   108.8905       -2.0813312E-18
   109.0520       -2.0736030E-18
   109.2135       -2.0583349E-18
   109.3750       -2.0421718E-18
   109.5365       -2.0324130E-18
   109.6980       -2.0334533E-18
   109.8595       -2.0445262E-18
   110.0210       -2.0599663E-18
   110.1825       -2.0719658E-18
   110.3440       -2.0744985E-18
   110.5055       -2.0664057E-18
   110.6670       -2.0520031E-18
   110.8285       -2.0388298E-18
   110.9900       -2.0336889E-18
   111.1515       -2.0390633E-18
   111.3130       -2.0518039E-18
   111.4745       -2.0647737E-18
   111.6360       -2.0705712E-18
   111.7975       -2.0653486E-18
   111.9590       -2.0507503E-18
   112.1205       -2.0330170E-18
   112.2820       -2.0198123E-18
   112.4435       -2.0164585E-18
   112.6050       -2.0234881E-18
   112.7665       -2.0366423E-18
   112.9280       -2.0491694E-18
   113.0895       -2.0551751E-18
   113.2510       -2.0523674E-18
   113.4125       -2.0429444E-18
   113.5740       -2.0323139E-18
   113.7355       -2.0263572E-18
   113.8970       -2.0285746E-18
   114.0585       -2.0384510E-18
   114.2200       -2.0517661E-18
   114.3815       -2.0626702E-18
   114.5430       -2.0665143E-18
   114.7045       -2.0620858E-18
   114.8660       -2.0521664E-18
   115.0275       -2.0421342E-18
   115.1890       -2.0372919E-18
   115.3505       -2.0402453E-18
   115.5120       -2.0496578E-18
   115.6735       -2.0609920E-18
   115.8350       -2.0688321E-18
   115.9965       -2.0695629E-18
   116.1580       -2.0630443E-18
   116.3195       -2.0524872E-18
   116.4810       -2.0427070E-18
   116.6425       -2.0377390E-18
   116.8040       -2.0390430E-18
   116.9655       -2.0451156E-18
   117.1270       -2.0525407E-18
   117.2885       -2.0577966E-18
   117.4500       -2.0588761E-18
   117.6115       -2.0560112E-18
   117.7730       -2.0513248E-18
   117.9345       -2.0477121E-18
   118.0960       -2.0475191E-18
   118.2575       -2.0515401E-18
   118.4190       -2.0586801E-18
   118.5805       -2.0663735E-18
   118.7420       -2.0716019E-18