  -27.90000        1.0196648E-17
  -27.73850        1.0226813E-17
  -27.57700        1.0275860E-17
  -27.41550        1.0326837E-17
  -27.25400        1.0364478E-17
  -27.09250        1.0381685E-17
  -26.93100        1.0382220E-17
  -26.76950        1.0378457E-17
  -26.60800        1.0385241E-17
  -26.44650        1.0412719E-17
  -26.28500        1.0461399E-17
  -26.12350        1.0521706E-17
  -25.96200        1.0578207E-17
  -25.80050        1.0616552E-17
  -25.63900        1.0629974E-17
  -25.47750        1.0622370E-17
  -25.31600        1.0606574E-17
  -25.15450        1.0598620E-17
  -24.99300        1.0610604E-17
  -24.83150        1.0645360E-17
  -24.67000        1.0695331E-17
  -24.50850        1.0746100E-17
  -24.34700        1.0782948E-17
  -24.18550        1.0797453E-17
  -24.02400        1.0791173E-17
  -23.86250        1.0774795E-17
  -23.70100        1.0763213E-17
  -23.53950        1.0768788E-17
  -23.37800        1.0795859E-17
  -23.21650        1.0838922E-17
  -23.05500        1.0885261E-17
  -22.89350        1.0920741E-17
  -22.73200        1.0936148E-17
  -22.57050        1.0931204E-17
  -22.40900        1.0914515E-17
  -22.24750        1.0899550E-17
  -22.08600        1.0898530E-17
  -21.92450        1.0916974E-17
  -21.76300        1.0951353E-17
  -21.60150        1.0990804E-17
  -21.44000        1.1022100E-17
  -21.27850        1.1035587E-17
  -21.11700        1.1029456E-17
  -20.95550        1.1010489E-17
  -20.79400        1.0991019E-17
  -20.63250        1.0983509E-17
  -20.47100        1.0995168E-17
  -20.30950        1.1024954E-17
  -20.14800        1.1064204E-17
  -19.98650        1.1100533E-17
  -19.82500        1.1123227E-17
  -19.66350        1.1127768E-17
  -19.50200        1.1117550E-17
  -19.34050        1.1102115E-17
  -19.17900        1.1092780E-17
  -19.01750        1.1097613E-17
  -18.85600        1.1117953E-17
  -18.69450        1.1147973E-17
  -18.53300        1.1177393E-17
  -18.37150        1.1196116E-17
  -18.21000        1.1198754E-17
  -18.04850        1.1187046E-17
  -17.88700        1.1169168E-17
  -17.72550        1.1156244E-17
  -17.56400        1.1157588E-17
  -17.40250        1.1176733E-17
  -17.24100        1.1209924E-17
  -17.07950        1.1247707E-17
  -16.91800        1.1278894E-17
  -16.75650        1.1295218E-17
  -16.59500        1.1294687E-17
  -16.43350        1.1282246E-17
  -16.27200        1.1267519E-17
  -16.11050        1.1260616E-17
  -15.94900        1.1267825E-17
  -15.78750        1.1289024E-17
  -15.62600        1.1317897E-17
  -15.46450        1.1344845E-17
  -15.30300        1.1361322E-17
  -15.14150        1.1363722E-17
  -14.98000        1.1355129E-17
  -14.81850        1.1344129E-17
  -14.65700        1.1341182E-17
  -14.49550        1.1354056E-17
  -14.33400        1.1384309E-17
  -14.17250        1.1426352E-17
  -14.01100        1.1469552E-17
  -13.84950        1.1502532E-17
  -13.68800        1.1517874E-17
  -13.52650        1.1515186E-17
  -13.36500        1.1501212E-17
  -13.20350        1.1486870E-17
  -13.04200        1.1482491E-17
  -12.88050        1.1493289E-17
  -12.71900        1.1517068E-17
  -12.55750        1.1545201E-17
  -12.39600        1.1566504E-17
  -12.23450        1.1572335E-17
  -12.07300        1.1560677E-17
  -11.91150        1.1537356E-17
  -11.75000        1.1513770E-17
  -11.58850        1.1502069E-17
  -11.42700        1.1509857E-17
  -11.26550        1.1536790E-17
  -11.10400        1.1574610E-17
  -10.94250        1.1610711E-17
  -10.78100        1.1633696E-17
  -10.61950        1.1638497E-17
  -10.45800        1.1628736E-17
  -10.29650        1.1615183E-17
  -10.13500        1.1610942E-17
  -9.973500        1.1625428E-17
  -9.812000        1.1659864E-17
  -9.650500        1.1706354E-17
  -9.489000        1.1751043E-17
  -9.327500        1.1780052E-17
  -9.166000        1.1785554E-17
  -9.004500        1.1769264E-17
  -8.843000        1.1741728E-17
  -8.681500        1.1717664E-17
  -8.520000        1.1709392E-17
  -8.358500        1.1721339E-17
  -8.197000        1.1748101E-17
  -8.035500        1.1777028E-17
  -7.874000        1.1794180E-17
  -7.712500        1.1791003E-17
  -7.551000        1.1768621E-17
  -7.389500        1.1737739E-17
  -7.228000        1.1714085E-17
  -7.066500        1.1711389E-17
  -6.905000        1.1735073E-17
  -6.743500        1.1779554E-17
  -6.582000        1.1830479E-17
  -6.420500        1.1870946E-17
  -6.259000        1.1888956E-17
  -6.097500        1.1882710E-17
  -5.936000        1.1861325E-17
  -5.774500        1.1840606E-17
  -5.613000        1.1835767E-17
  -5.451500        1.1854440E-17
  -5.290000        1.1893157E-17
  -5.128500        1.1938966E-17
  -4.967000        1.1975448E-17
  -4.805500        1.1990365E-17
  -4.644000        1.1981434E-17
  -4.482500        1.1957520E-17
  -4.321000        1.1934669E-17
  -4.159500        1.1928760E-17
  -3.998000        1.1948140E-17
  -3.836500        1.1989625E-17
  -3.675000        1.2039748E-17
  -3.513500        1.2080711E-17
  -3.352000        1.2098358E-17
  -3.190500        1.2088528E-17
  -3.029000        1.2058909E-17
  -2.867500        1.2025510E-17
  -2.706000        1.2005390E-17
  -2.544500        1.2008932E-17
  -2.383000        1.2035209E-17
  -2.221500        1.2072556E-17
  -2.060000        1.2104078E-17
  -1.898500        1.2115536E-17
  -1.737000        1.2101999E-17
  -1.575500        1.2070183E-17
  -1.414000        1.2035405E-17
  -1.252500        1.2014561E-17
  -1.091000        1.2018367E-17
 -0.9295000        1.2046441E-17
 -0.7680000        1.2087499E-17
 -0.6065000        1.2124561E-17
 -0.4450000        1.2142766E-17
 -0.2835000        1.2136190E-17
 -0.1220000        1.2110535E-17
  3.9500002E-02    1.2080467E-17
  0.2010000        1.2062881E-17
  0.3625000        1.2069171E-17
  0.5240000        1.2100093E-17
  0.6855000        1.2145509E-17
  0.8470000        1.2189095E-17
   1.008500        1.2215812E-17
   1.170000        1.2218677E-17
   1.331500        1.2201769E-17
   1.493000        1.2178159E-17
   1.654500        1.2163793E-17
   1.816000        1.2170178E-17
   1.977500        1.2199213E-17
   2.139000        1.2242500E-17
   2.300500        1.2285339E-17
   2.462000        1.2313536E-17
   2.623500        1.2319858E-17
   2.785000        1.2307198E-17
   2.946500        1.2287068E-17
   3.108000        1.2274177E-17
   3.269500        1.2279608E-17
   3.431000        1.2305732E-17
   3.592500        1.2345113E-17
   3.754000        1.2383866E-17
   3.915500        1.2407878E-17
   4.077000        1.2409074E-17
   4.238500        1.2388895E-17
   4.400000        1.2357494E-17
   4.561500        1.2329113E-17
   4.723000        1.2315781E-17
   4.884500        1.2322221E-17
   5.046000        1.2344182E-17
   5.207500        1.2370853E-17
   5.369000        1.2390147E-17
   5.530500        1.2394386E-17
   5.692000        1.2383792E-17
   5.853500        1.2366267E-17
   6.015000        1.2353644E-17
   6.176500        1.2356174E-17
   6.338000        1.2377802E-17
   6.499500        1.2414303E-17
   6.661000        1.2455076E-17
   6.822500        1.2487701E-17
   6.984000        1.2503218E-17
   7.145500        1.2499782E-17
   7.307000        1.2483156E-17
   7.468500        1.2463924E-17
   7.630000        1.2452756E-17
   7.791500        1.2455835E-17
   7.953000        1.2472443E-17
   8.114500        1.2495639E-17
   8.276000        1.2515658E-17
   8.437500        1.2524407E-17
   8.599000        1.2519120E-17
   8.760500        1.2503551E-17
   8.922000        1.2486267E-17
   9.083500        1.2476852E-17
   9.245000        1.2481703E-17
   9.406500        1.2501287E-17
   9.568000        1.2529987E-17
   9.729500        1.2558579E-17
   9.891000        1.2578232E-17
   10.05250        1.2584277E-17
   10.21400        1.2578132E-17
   10.37550        1.2566575E-17
   10.53700        1.2558696E-17
   10.69850        1.2561897E-17
   10.86000        1.2578663E-17
   11.02150        1.2605486E-17
   11.18300        1.2634394E-17
   11.34450        1.2656380E-17
   11.50600        1.2665265E-17
   11.66750        1.2660324E-17
   11.82900        1.2646563E-17
   11.99050        1.2632543E-17
   12.15200        1.2626695E-17
   12.31350        1.2633740E-17
   12.47500        1.2652734E-17
   12.63650        1.2677584E-17
   12.79800        1.2699792E-17
   12.95950        1.2712251E-17
   13.12100        1.2712429E-17
   13.28250        1.2703570E-17
   13.44400        1.2693316E-17
   13.60550        1.2690339E-17
   13.76700        1.2700421E-17
   13.92850        1.2723706E-17
   14.09000        1.2754385E-17
   14.25150        1.2783003E-17
   14.41300        1.2800464E-17
   14.57450        1.2801991E-17
   14.73600        1.2789311E-17
   14.89750        1.2770020E-17
   15.05900        1.2754358E-17
   15.22050        1.2750755E-17
   15.38200        1.2762145E-17
   15.54350        1.2784701E-17
   15.70500        1.2809615E-17
   15.86650        1.2827141E-17
   16.02800        1.2831105E-17
   16.18950        1.2821833E-17
   16.35100        1.2806104E-17
   16.51250        1.2794100E-17
   16.67400        1.2794702E-17
   16.83550        1.2811264E-17
   16.99700        1.2839861E-17
   17.15850        1.2870857E-17
   17.32000        1.2893155E-17
   17.48150        1.2899222E-17
   17.64300        1.2888616E-17
   17.80450        1.2868355E-17
   17.96600        1.2849907E-17
   18.12750        1.2844086E-17
   18.28900        1.2856191E-17
   18.45050        1.2883571E-17
   18.61200        1.2916807E-17
   18.77350        1.2943972E-17
   18.93500        1.2956064E-17
   19.09650        1.2951123E-17
   19.25800        1.2935115E-17
   19.41950        1.2919152E-17
   19.58100        1.2914285E-17
   19.74250        1.2926265E-17
   19.90400        1.2952724E-17
   20.06550        1.2984148E-17
   20.22700        1.3008227E-17
   20.38850        1.3015606E-17
   20.55000        1.3004369E-17
   20.71150        1.2981129E-17
   20.87300        1.2958187E-17
   21.03450        1.2947990E-17
   21.19600        1.2957458E-17
   21.35750        1.2984784E-17
   21.51900        1.3020269E-17
   21.68050        1.3050788E-17
   21.84200        1.3065854E-17
   22.00350        1.3062449E-17
   22.16500        1.3046375E-17
   22.32650        1.3029485E-17
   22.48800        1.3024091E-17
   22.64950        1.3037152E-17
   22.81100        1.3066954E-17
   22.97250        1.3103845E-17
   23.13400        1.3134707E-17
   23.29550        1.3149028E-17
   23.45700        1.3143760E-17
   23.61850        1.3124670E-17
   23.78000        1.3103580E-17
   23.94150        1.3092783E-17
   24.10300        1.3099283E-17
   24.26450        1.3121505E-17
   24.42600        1.3150044E-17
   24.58750        1.3172096E-17
   24.74900        1.3177472E-17
   24.91050        1.3163411E-17
   25.07200        1.3135946E-17
   25.23350        1.3107216E-17
   25.39500        1.3090000E-17
   25.55650        1.3092013E-17
   25.71800        1.3112592E-17
   25.87950        1.3143256E-17
   26.04100        1.3171845E-17
   26.20250        1.3188258E-17
   26.36400        1.3189113E-17
   26.52550        1.3179144E-17
   26.68700        1.3168761E-17
   26.84850        1.3168951E-17
   27.01000        1.3185963E-17
   27.17150        1.3218249E-17
   27.33300        1.3257081E-17
   27.49450        1.3290515E-17
   27.65600        1.3308828E-17
   27.81750        1.3308863E-17
   27.97900        1.3295305E-17
   28.14050        1.3278337E-17
   28.30200        1.3268850E-17
   28.46350        1.3273506E-17
   28.62500        1.3291896E-17
   28.78650        1.3317054E-17
   28.94800        1.3338947E-17
   29.10950        1.3349253E-17
   29.27100        1.3345163E-17
   29.43250        1.3330503E-17
   29.59400        1.3313770E-17
   29.75550        1.3304104E-17
   29.91700        1.3307137E-17
   30.07850        1.3322603E-17
   30.24000        1.3344718E-17
   30.40150        1.3365013E-17
   30.56300        1.3376247E-17
   30.72450        1.3375591E-17
   30.88600        1.3365703E-17
   31.04750        1.3353300E-17
   31.20900        1.3345993E-17
   31.37050        1.3348860E-17
   31.53200        1.3362307E-17
   31.69350        1.3382077E-17
   31.85500        1.3401298E-17
   32.01650        1.3413565E-17
   32.17800        1.3415664E-17
   32.33950        1.3408777E-17
   32.50100        1.3397727E-17
   32.66250        1.3388704E-17
   32.82400        1.3386562E-17
   32.98550        1.3392907E-17
   33.14700        1.3405719E-17
   33.30850        1.3420572E-17
   33.47000        1.3432770E-17
   33.63150        1.3439410E-17
   33.79300        1.3440509E-17
   33.95450        1.3438796E-17
   34.11600        1.3438383E-17
   34.27750        1.3442969E-17
   34.43900        1.3454366E-17
   34.60050        1.3471880E-17
   34.76200        1.3492693E-17
   34.92350        1.3512971E-17
   35.08500        1.3529230E-17
   35.24650        1.3539487E-17
   35.40800        1.3543819E-17
   35.56950        1.3544245E-17
   35.73100        1.3543942E-17
   35.89250        1.3546094E-17
   36.05400        1.3552717E-17
   36.21550        1.3563864E-17
   36.37700        1.3577496E-17
   36.53850        1.3590169E-17
   36.70000        1.3598341E-17
   36.86150        1.3599882E-17
   37.02300        1.3595152E-17
   37.18450        1.3587115E-17
   37.34600        1.3580334E-17
   37.50750        1.3579152E-17
   37.66900        1.3585804E-17
   37.83050        1.3599310E-17
   37.99200        1.3615706E-17
   38.15350        1.3629643E-17
   38.31500        1.3636740E-17
   38.47650        1.3635664E-17
   38.63800        1.3628936E-17
   38.79950        1.3622011E-17
   38.96100        1.3620916E-17
   39.12250        1.3629472E-17
   39.28400        1.3647339E-17
   39.44550        1.3669837E-17
   39.60700        1.3689766E-17
   39.76850        1.3700482E-17
   39.93000        1.3698915E-17
   40.09150        1.3687111E-17
   40.25300        1.3671501E-17
   40.41450        1.3660103E-17
   40.57600        1.3658874E-17
   40.73750        1.3668875E-17
   40.89900        1.3685621E-17
   41.06050        1.3701024E-17
   41.22200        1.3707150E-17
   41.38350        1.3700079E-17
   41.54500        1.3682054E-17
   41.70650        1.3660793E-17
   41.86800        1.3646163E-17
   42.02950        1.3645706E-17
   42.19100        1.3661094E-17
   42.35250        1.3687238E-17
   42.51400        1.3714538E-17
   42.67550        1.3733294E-17
   42.83700        1.3738237E-17
   42.99850        1.3731032E-17
   43.16000        1.3719529E-17
   43.32150        1.3714066E-17
   43.48300        1.3722532E-17
   43.64450        1.3746537E-17
   43.80600        1.3780496E-17
   43.96750        1.3814078E-17
   44.12900        1.3836887E-17
   44.29050        1.3843203E-17
   44.45200        1.3834573E-17
   44.61350        1.3819052E-17
   44.77500        1.3807453E-17
   44.93650        1.3808341E-17
   45.09800        1.3824095E-17
   45.25950        1.3849850E-17
   45.42100        1.3875785E-17
   45.58250        1.3891683E-17
   45.74400        1.3891663E-17
   45.90550        1.3876918E-17
   46.06700        1.3855221E-17
   46.22850        1.3837427E-17
   46.39000        1.3832581E-17
   46.55150        1.3843859E-17
   46.71300        1.3867207E-17
   46.87450        1.3893278E-17
   47.03600        1.3911767E-17
   47.19750        1.3916129E-17
   47.35900        1.3906552E-17
   47.52050        1.3889800E-17
   47.68200        1.3876045E-17
   47.84350        1.3874152E-17
   48.00500        1.3887575E-17
   48.16650        1.3912778E-17
   48.32800        1.3940842E-17
   48.48950        1.3961538E-17
   48.65100        1.3967906E-17
   48.81250        1.3959318E-17
   48.97400        1.3941615E-17
   49.13550        1.3924355E-17
   49.29700        1.3916450E-17
   49.45850        1.3922216E-17
   49.62000        1.3939583E-17
   49.78150        1.3961224E-17
   49.94300        1.3978021E-17
   50.10450        1.3983224E-17
   50.26600        1.3975483E-17
   50.42750        1.3959383E-17
   50.58900        1.3943367E-17
   50.75050        1.3935970E-17
   50.91200        1.3942071E-17
   51.07350        1.3960804E-17
   51.23500        1.3985973E-17
   51.39650        1.4008820E-17
   51.55800        1.4021845E-17
   51.71950        1.4022037E-17
   51.88100        1.4012102E-17
   52.04250        1.3999180E-17
   52.20400        1.3991606E-17
   52.36550        1.3995163E-17
   52.52700        1.4010469E-17
   52.68850        1.4032674E-17
   52.85000        1.4053602E-17
   53.01150        1.4065409E-17
   53.17300        1.4064104E-17
   53.33450        1.4051355E-17
   53.49600        1.4033776E-17
   53.65750        1.4020007E-17
   53.81900        1.4016891E-17
   53.98050        1.4026505E-17
   54.14200        1.4045328E-17
   54.30350        1.4065957E-17
   54.46500        1.4080550E-17
   54.62650        1.4084427E-17
   54.78800        1.4078209E-17
   54.94950        1.4067513E-17
   55.11100        1.4060418E-17
   55.27250        1.4063791E-17
   55.43400        1.4080179E-17
   55.59550        1.4106599E-17
   55.75700        1.4135787E-17
   55.91850        1.4159320E-17
   56.08000        1.4171233E-17
   56.24150        1.4170529E-17
   56.40300        1.4161473E-17
   56.56450        1.4151588E-17
   56.72600        1.4148225E-17
   56.88750        1.4155246E-17
   57.04900        1.4171321E-17
   57.21050        1.4190571E-17
   57.37200        1.4205313E-17
   57.53350        1.4209644E-17
   57.69500        1.4202246E-17
   57.85650        1.4187125E-17
   58.01800        1.4171912E-17
   58.17950        1.4164492E-17
   58.34100        1.4169490E-17
   58.50250        1.4186187E-17
   58.66400        1.4208832E-17
   58.82550        1.4229217E-17
   58.98700        1.4240328E-17
   59.14850        1.4239410E-17
   59.31000        1.4229098E-17
   59.47150        1.4216086E-17
   59.63300        1.4208015E-17
   59.79450        1.4209982E-17
   59.95600        1.4222257E-17
   60.11750        1.4240191E-17
   60.27900        1.4256335E-17
   60.44050        1.4263811E-17
   60.60200        1.4259398E-17
   60.76350        1.4244983E-17
   60.92500        1.4226759E-17
   61.08650        1.4212498E-17
   61.24800        1.4208172E-17
   61.40950        1.4215340E-17
   61.57100        1.4230517E-17
   61.73250        1.4246757E-17
   61.89400        1.4256795E-17
   62.05550        1.4256364E-17
   62.21700        1.4246184E-17
   62.37850        1.4231728E-17
   62.54000        1.4220833E-17
   62.70150        1.4220198E-17
   62.86300        1.4232355E-17
   63.02450        1.4254446E-17
   63.18600        1.4279401E-17
   63.34750        1.4299026E-17
   63.50900        1.4307631E-17
   63.67050        1.4304548E-17
   63.83200        1.4294430E-17
   63.99350        1.4285131E-17
   64.15500        1.4284158E-17
   64.31650        1.4295233E-17
   64.47800        1.4316549E-17
   64.63950        1.4341510E-17
   64.80100        1.4361652E-17
   64.96250        1.4370493E-17
   65.12400        1.4366559E-17
   65.28550        1.4354204E-17
   65.44700        1.4341780E-17
   65.60850        1.4337914E-17
   65.77000        1.4347530E-17
   65.93150        1.4369433E-17
   66.09300        1.4396614E-17
   66.25450        1.4419270E-17
   66.41600        1.4429206E-17
   66.57750        1.4423661E-17
   66.73900        1.4406717E-17
   66.90050        1.4387556E-17
   67.06200        1.4376285E-17
   67.22350        1.4379228E-17
   67.38500        1.4395924E-17
   67.54650        1.4419285E-17
   67.70800        1.4438919E-17
   67.86950        1.4446082E-17
   68.03100        1.4437945E-17
   68.19250        1.4419068E-17
   68.35400        1.4399370E-17
   68.51550        1.4389483E-17
   68.67700        1.4395699E-17
   68.83850        1.4416890E-17
   69.00000        1.4444918E-17
   69.16150        1.4468319E-17
   69.32300        1.4477601E-17
   69.48450        1.4469667E-17
   69.64600        1.4449285E-17
   69.80750        1.4426930E-17
   69.96900        1.4413950E-17
   70.13050        1.4417343E-17
   70.29200        1.4436542E-17
   70.45350        1.4463728E-17
   70.61500        1.4487536E-17
   70.77650        1.4498433E-17
   70.93800        1.4493257E-17
   71.09950        1.4476771E-17
   71.26100        1.4459476E-17
   71.42250        1.4452642E-17
   71.58400        1.4462924E-17
   71.74550        1.4489111E-17
   71.90700        1.4522567E-17
   72.06850        1.4551184E-17
   72.23000        1.4564985E-17
   72.39150        1.4560706E-17
   72.55300        1.4543203E-17
   72.71450        1.4523018E-17
   72.87600        1.4511307E-17
   73.03750        1.4514548E-17
   73.19900        1.4531583E-17
   73.36050        1.4554316E-17
   73.52200        1.4571680E-17
   73.68350        1.4574934E-17
   73.84500        1.4561735E-17
   74.00650        1.4537180E-17
   74.16800        1.4511383E-17
   74.32950        1.4494835E-17
   74.49100        1.4493738E-17
   74.65250        1.4507439E-17
   74.81400        1.4529050E-17
   74.97550        1.4548846E-17
   75.13700        1.4558784E-17
   75.29850        1.4556086E-17
   75.46000        1.4544297E-17
   75.62150        1.4531451E-17
   75.78300        1.4526246E-17
   75.94450        1.4533995E-17
   76.10600        1.4554152E-17
   76.26750        1.4580508E-17
   76.42900        1.4603903E-17
   76.59050        1.4616220E-17
   76.75200        1.4613843E-17
   76.91350        1.4599096E-17
   77.07500        1.4579083E-17
   77.23650        1.4562496E-17
   77.39800        1.4555867E-17
   77.55950        1.4560910E-17
   77.72100        1.4574108E-17
   77.88250        1.4588630E-17
   78.04400        1.4597637E-17
   78.20550        1.4597458E-17
   78.36700        1.4589261E-17
   78.52850        1.4578512E-17
   78.69000        1.4572562E-17
   78.85150        1.4577435E-17
   79.01300        1.4595218E-17
   79.17450        1.4623119E-17
   79.33600        1.4654570E-17
   79.49750        1.4681888E-17
   79.65900        1.4699344E-17
   79.82050        1.4705404E-17
   79.98200        1.4703233E-17
   80.14350        1.4699226E-17
   80.30500        1.4700210E-17
   80.46650        1.4710400E-17
   80.62800        1.4729451E-17
   80.78950        1.4752470E-17
   80.95100        1.4772049E-17
   81.11250        1.4781550E-17
   81.27400        1.4778169E-17
   81.43550        1.4764439E-17
   81.59700        1.4747373E-17
   81.75850        1.4735515E-17
   81.92000        1.4735156E-17
   82.08150        1.4747408E-17
   82.24300        1.4767545E-17
   82.40450        1.4787038E-17
   82.56600        1.4797429E-17
   82.72750        1.4794301E-17
   82.88900        1.4779451E-17
   83.05050        1.4760208E-17
   83.21200        1.4746074E-17
   83.37350        1.4744240E-17
   83.53500        1.4756047E-17
   83.69650        1.4776126E-17
   83.85800        1.4794731E-17
   84.01950        1.4802230E-17
   84.18100        1.4793689E-17
   84.34250        1.4771313E-17
   84.50400        1.4743585E-17
   84.66550        1.4721366E-17
   84.82700        1.4712856E-17
   84.98850        1.4719699E-17
   85.15000        1.4736211E-17
   85.31150        1.4752116E-17
   85.47300        1.4757506E-17
   85.63450        1.4747706E-17
   85.79600        1.4725610E-17
   85.95750        1.4700401E-17
   86.11900        1.4683180E-17
   86.28050        1.4681650E-17
   86.44200        1.4696387E-17
   86.60350        1.4720548E-17
   86.76500        1.4743148E-17
   86.92650        1.4754374E-17
   87.08800        1.4750351E-17
   87.24950        1.4735023E-17
   87.41100        1.4718278E-17
   87.57250        1.4711159E-17
   87.73400        1.4720548E-17
   87.89550        1.4745868E-17
   88.05700        1.4779403E-17
   88.21850        1.4810037E-17
   88.38000        1.4828602E-17
   88.54150        1.4832210E-17
   88.70300        1.4825452E-17
   88.86450        1.4817917E-17
   89.02600        1.4819298E-17
   89.18750        1.4834521E-17
   89.34900        1.4861279E-17
   89.51050        1.4891144E-17
   89.67200        1.4913673E-17
   89.83350        1.4921418E-17
   89.99500        1.4913426E-17
   90.15650        1.4895543E-17
   90.31800        1.4877484E-17
   90.47950        1.4868163E-17
   90.64100        1.4871624E-17
   90.80250        1.4885472E-17
   90.96400        1.4902488E-17
   91.12550        1.4914460E-17
   91.28700        1.4916335E-17
   91.44850        1.4908648E-17
   91.61000        1.4897164E-17
   91.77150        1.4889992E-17
   91.93300        1.4893662E-17
   92.09450        1.4910026E-17
   92.25600        1.4935464E-17
   92.41750        1.4962619E-17
   92.57900        1.4983791E-17
   92.74050        1.4994286E-17
   92.90200        1.4994204E-17
   93.06350        1.4987917E-17
   93.22500        1.4981599E-17
   93.38650        1.4980072E-17
   93.54800        1.4984509E-17
   93.70950        1.4992046E-17
   93.87100        1.4997373E-17
   94.03250        1.4995473E-17
   94.19400        1.4984120E-17
   94.35550        1.4965004E-17
   94.51700        1.4942993E-17
   94.67850        1.4924031E-17
   94.84000        1.4912670E-17
   95.00150        1.4910392E-17
   95.16300        1.4915365E-17
   95.32450        1.4923644E-17
   95.48600        1.4931100E-17
   95.64750        1.4935216E-17
   95.80900        1.4935962E-17
   95.97050        1.4935510E-17
   96.13200        1.4937042E-17
   96.29350        1.4943190E-17
   96.45500        1.4954805E-17
   96.61650        1.4970482E-17
   96.77800        1.4987006E-17
   96.93950        1.5000540E-17
   97.10100        1.5008077E-17
   97.26250        1.5008578E-17
   97.42400        1.5003384E-17
   97.58550        1.4995691E-17
   97.74700        1.4989289E-17
   97.90850        1.4987009E-17
   98.07000        1.4989567E-17
   98.23150        1.4995310E-17
   98.39300        1.5001046E-17
   98.55450        1.5003600E-17
   98.71600        1.5001456E-17
   98.87750        1.4995660E-17
   99.03900        1.4989565E-17
   99.20050        1.4987447E-17
   99.36200        1.4992584E-17
   99.52350        1.5005647E-17
   99.68500        1.5024207E-17
   99.84650        1.5043644E-17
   100.0080        1.5059093E-17
   100.1695        1.5067570E-17
   100.3310        1.5069269E-17
   100.4925        1.5067396E-17
   100.6540        1.5066610E-17
   100.8155        1.5070734E-17
   100.9770        1.5080821E-17
   101.1385        1.5094542E-17
   101.3000        1.5107216E-17
   101.4615        1.5114070E-17
   101.6230        1.5112628E-17
   101.7845        1.5104058E-17
   101.9460        1.5092810E-17
   102.1075        1.5084606E-17
   102.2690        1.5083764E-17
   102.4305        1.5091121E-17
   102.5920        1.5103555E-17
   102.7535        1.5115420E-17
   102.9150        1.5121199E-17
   103.0765        1.5118130E-17
   103.2380        1.5107513E-17
   103.3995        1.5094048E-17
   103.5610        1.5083541E-17
   103.7225        1.5080108E-17
   103.8840        1.5084219E-17
   104.0455        1.5092555E-17
   104.2070        1.5099745E-17
   104.3685        1.5101113E-17
   104.5300        1.5095080E-17
   104.6915        1.5084042E-17
   104.8530        1.5073254E-17
   105.0145        1.5068311E-17
   105.1760        1.5072448E-17
   105.3375        1.5084993E-17
   105.4990        1.5101693E-17
   105.6605        1.5116732E-17
   105.8220        1.5125462E-17
   105.9835        1.5126506E-17
   106.1450        1.5122253E-17
   106.3065        1.5117538E-17
   106.4680        1.5117172E-17
   106.6295        1.5123575E-17
   106.7910        1.5135618E-17
   106.9525        1.5149236E-17
   107.1140        1.5159463E-17
   107.2755        1.5162906E-17
   107.4370        1.5159459E-17
   107.5985        1.5152430E-17
   107.7600        1.5147007E-17
   107.9215        1.5147808E-17
   108.0830        1.5156698E-17
   108.2445        1.5171957E-17
   108.4060        1.5189182E-17
   108.5675        1.5203500E-17
   108.7290        1.5211971E-17
   108.8905        1.5214996E-17
   109.0520        1.5216027E-17
   109.2135        1.5219703E-17
   109.3750        1.5229351E-17
   109.5365        1.5245134E-17
   109.6980        1.5263784E-17
   109.8595        1.5280081E-17
   110.0210        1.5289320E-17
   110.1825        1.5289549E-17
   110.3440        1.5282440E-17
   110.5055        1.5272398E-17
   110.6670        1.5264351E-17
   110.8285        1.5261322E-17
   110.9900        1.5263001E-17
   111.1515        1.5266047E-17
   111.3130        1.5265949E-17
   111.4745        1.5259545E-17
   111.6360        1.5246902E-17
   111.7975        1.5231605E-17
   111.9590        1.5219241E-17
   112.1205        1.5214783E-17
   112.2820        1.5220098E-17
   112.4435        1.5232887E-17
   112.6050        1.5247612E-17
   112.7665        1.5258084E-17
   112.9280        1.5260460E-17
   113.0895        1.5255126E-17
   113.2510        1.5246456E-17
   113.4125        1.5240482E-17
   113.5740        1.5241613E-17
   113.7355        1.5250077E-17
   113.8970        1.5261486E-17
   114.0585        1.5268889E-17
   114.2200        1.5266338E-17
   114.3815        1.5252185E-17
   114.5430        1.5230309E-17
   114.7045        1.5208544E-17
   114.8660        1.5194980E-17
   115.0275        1.5194011E-17
   115.1890        1.5204136E-17
   115.3505        1.5218724E-17
   115.5120        1.5229421E-17
   115.6735        1.5230506E-17
   115.8350        1.5221958E-17
   115.9965        1.5209616E-17
   116.1580        1.5202258E-17
   116.3195        1.5207037E-17
   116.4810        1.5225621E-17
   116.6425        1.5253037E-17
   116.8040        1.5279909E-17
   116.9655        1.5296998E-17
   117.1270        1.5299812E-17
   117.2885        1.5290894E-17
   117.4500        1.5278578E-17
   117.6115        1.5272785E-17
   117.7730        1.5279943E-17
   117.9345        1.5299668E-17
   118.0960        1.5324899E-17
   118.2575        1.5345511E-17
   118.4190        1.5353504E-17
   118.5805        1.5347168E-17
   118.7420        1.5332021E-17