  -27.90000        4.1546288E-18
  -27.73850        4.1532350E-18
  -27.57700        4.1510554E-18
  -27.41550        4.1488199E-18
  -27.25400        4.1468756E-18
  -27.09250        4.1450459E-18
  -26.93100        4.1429403E-18
  -26.76950        4.1404162E-18
  -26.60800        4.1377766E-18
  -26.44650        4.1355259E-18
  -26.28500        4.1339261E-18
  -26.12350        4.1327374E-18
  -25.96200        4.1314007E-18
  -25.80050        4.1295102E-18
  -25.63900        4.1271639E-18
  -25.47750        4.1248867E-18
  -25.31600        4.1231728E-18
  -25.15450        4.1220647E-18
  -24.99300        4.1211209E-18
  -24.83150        4.1198127E-18
  -24.67000        4.1179921E-18
  -24.50850        4.1160081E-18
  -24.34700        4.1143906E-18
  -24.18550        4.1133793E-18
  -24.02400        4.1127110E-18
  -23.86250        4.1118445E-18
  -23.70100        4.1104255E-18
  -23.53950        4.1085900E-18
  -23.37800        4.1068326E-18
  -23.21650        4.1055708E-18
  -23.05500        4.1047804E-18
  -22.89350        4.1040438E-18
  -22.73200        4.1029478E-18
  -22.57050        4.1014692E-18
  -22.40900        4.0999881E-18
  -22.24750        4.0989120E-18
  -22.08600        4.0982601E-18
  -21.92450        4.0976005E-18
  -21.76300        4.0964201E-18
  -21.60150        4.0946052E-18
  -21.44000        4.0926196E-18
  -21.27850        4.0911737E-18
  -21.11700        4.0906488E-18
  -20.95550        4.0907402E-18
  -20.79400        4.0906319E-18
  -20.63250        4.0895979E-18
  -20.47100        4.0875382E-18
  -20.30950        4.0850335E-18
  -20.14800        4.0828721E-18
  -19.98650        4.0814688E-18
  -19.82500        4.0806304E-18
  -19.66350        4.0798343E-18
  -19.50200        4.0787321E-18
  -19.34050        4.0774379E-18
  -19.17900        4.0763820E-18
  -19.01750        4.0758861E-18
  -18.85600        4.0758572E-18
  -18.69450        4.0758605E-18
  -18.53300        4.0754825E-18
  -18.37150        4.0746532E-18
  -18.21000        4.0736296E-18
  -18.04850        4.0726804E-18
  -17.88700        4.0717813E-18
  -17.72550        4.0706302E-18
  -17.56400        4.0689895E-18
  -17.40250        4.0670155E-18
  -17.24100        4.0652436E-18
  -17.07950        4.0641977E-18
  -16.91800        4.0639379E-18
  -16.75650        4.0639565E-18
  -16.59500        4.0635388E-18
  -16.43350        4.0623059E-18
  -16.27200        4.0605018E-18
  -16.11050        4.0587801E-18
  -15.94900        4.0576654E-18
  -15.78750        4.0571290E-18
  -15.62600        4.0566385E-18
  -15.46450        4.0556364E-18
  -15.30300        4.0540271E-18
  -15.14150        4.0522561E-18
  -14.98000        4.0509119E-18
  -14.81850        4.0502113E-18
  -14.65700        4.0498163E-18
  -14.49550        4.0491413E-18
  -14.33400        4.0478766E-18
  -14.17250        4.0462789E-18
  -14.01100        4.0449926E-18
  -13.84950        4.0445455E-18
  -13.68800        4.0449484E-18
  -13.52650        4.0457110E-18
  -13.36500        4.0462375E-18
  -13.20350        4.0462685E-18
  -13.04200        4.0459889E-18
  -12.88050        4.0457644E-18
  -12.71900        4.0457611E-18
  -12.55750        4.0458099E-18
  -12.39600        4.0456018E-18
  -12.23450        4.0449930E-18
  -12.07300        4.0441170E-18
  -11.91150        4.0431956E-18
  -11.75000        4.0422613E-18
  -11.58850        4.0410850E-18
  -11.42700        4.0394021E-18
  -11.26550        4.0372432E-18
  -11.10400        4.0350238E-18
  -10.94250        4.0332570E-18
  -10.78100        4.0320886E-18
  -10.61950        4.0310625E-18
  -10.45800        4.0293928E-18
  -10.29650        4.0265882E-18
  -10.13500        4.0229445E-18
  -9.973500        4.0194716E-18
  -9.812000        4.0172395E-18
  -9.650500        4.0166265E-18
  -9.489000        4.0170351E-18
  -9.327500        4.0173040E-18
  -9.166000        4.0165132E-18
  -9.004500        4.0145826E-18
  -8.843000        4.0122557E-18
  -8.681500        4.0105244E-18
  -8.520000        4.0099508E-18
  -8.358500        4.0103743E-18
  -8.197000        4.0111547E-18
  -8.035500        4.0116812E-18
  -7.874000        4.0117350E-18
  -7.712500        4.0114827E-18
  -7.551000        4.0112147E-18
  -7.389500        4.0111258E-18
  -7.228000        4.0112916E-18
  -7.066500        4.0117648E-18
  -6.905000        4.0125874E-18
  -6.743500        4.0136565E-18
  -6.582000        4.0146090E-18
  -6.420500        4.0149167E-18
  -6.259000        4.0142368E-18
  -6.097500        4.0127586E-18
  -5.936000        4.0112205E-18
  -5.774500        4.0104892E-18
  -5.613000        4.0109297E-18
  -5.451500        4.0120625E-18
  -5.290000        4.0128231E-18
  -5.128500        4.0122904E-18
  -4.967000        4.0103610E-18
  -4.805500        4.0078423E-18
  -4.644000        4.0058827E-18
  -4.482500        4.0051639E-18
  -4.321000        4.0054658E-18
  -4.159500        4.0059000E-18
  -3.998000        4.0055977E-18
  -3.836500        4.0043139E-18
  -3.675000        4.0025111E-18
  -3.513500        4.0009204E-18
  -3.352000        3.9999667E-18
  -3.190500        3.9995072E-18
  -3.029000        3.9990431E-18
  -2.867500        3.9981589E-18
  -2.706000        3.9968048E-18
  -2.544500        3.9952290E-18
  -2.383000        3.9936913E-18
  -2.221500        3.9922586E-18
  -2.060000        3.9908449E-18
  -1.898500        3.9894044E-18
  -1.737000        3.9880317E-18
  -1.575500        3.9868720E-18
  -1.414000        3.9859286E-18
  -1.252500        3.9850022E-18
  -1.091000        3.9838507E-18
 -0.9295000        3.9824495E-18
 -0.7680000        3.9810850E-18
 -0.6065000        3.9801557E-18
 -0.4450000        3.9797992E-18
 -0.2835000        3.9796846E-18
 -0.1220000        3.9792020E-18
  3.9500002E-02    3.9779347E-18
  0.2010000        3.9760471E-18
  0.3625000        3.9742149E-18
  0.5240000        3.9731143E-18
  0.6855000        3.9728645E-18
  0.8470000        3.9728835E-18
   1.008500        3.9723198E-18
   1.170000        3.9707407E-18
   1.331500        3.9685446E-18
   1.493000        3.9667463E-18
   1.654500        3.9662764E-18
   1.816000        3.9672972E-18
   1.977500        3.9690520E-18
   2.139000        3.9703797E-18
   2.300500        3.9704897E-18
   2.462000        3.9694495E-18
   2.623500        3.9680359E-18
   2.785000        3.9671235E-18
   2.946500        3.9670788E-18
   3.108000        3.9675759E-18
   3.269500        3.9678936E-18
   3.431000        3.9674122E-18
   3.592500        3.9659683E-18
   3.754000        3.9638780E-18
   3.915500        3.9617133E-18
   4.077000        3.9600209E-18
   4.238500        3.9591366E-18
   4.400000        3.9591077E-18
   4.561500        3.9596714E-18
   4.723000        3.9603001E-18
   4.884500        3.9603840E-18
   5.046000        3.9595535E-18
   5.207500        3.9579980E-18
   5.369000        3.9564855E-18
   5.530500        3.9559710E-18
   5.692000        3.9569496E-18
   5.853500        3.9590229E-18
   6.015000        3.9610532E-18
   6.176500        3.9618800E-18
   6.338000        3.9611368E-18
   6.499500        3.9595635E-18
   6.661000        3.9585344E-18
   6.822500        3.9590775E-18
   6.984000        3.9610875E-18
   7.145500        3.9633110E-18
   7.307000        3.9641510E-18
   7.468500        3.9627324E-18
   7.630000        3.9594634E-18
   7.791500        3.9557171E-18
   7.953000        3.9529009E-18
   8.114500        3.9515882E-18
   8.276000        3.9512900E-18
   8.437500        3.9509343E-18
   8.599000        3.9496476E-18
   8.760500        3.9472947E-18
   8.922000        3.9444682E-18
   9.083500        3.9420578E-18
   9.245000        3.9407331E-18
   9.406500        3.9406574E-18
   9.568000        3.9415053E-18
   9.729500        3.9426555E-18
   9.891000        3.9434372E-18
   10.05250        3.9433681E-18
   10.21400        3.9423796E-18
   10.37550        3.9409296E-18
   10.53700        3.9398571E-18
   10.69850        3.9399345E-18
   10.86000        3.9413283E-18
   11.02150        3.9433557E-18
   11.18300        3.9448070E-18
   11.34450        3.9447036E-18
   11.50600        3.9430021E-18
   11.66750        3.9406942E-18
   11.82900        3.9391586E-18
   11.99050        3.9391664E-18
   12.15200        3.9402566E-18
   12.31350        3.9409780E-18
   12.47500        3.9398774E-18
   12.63650        3.9365211E-18
   12.79800        3.9318132E-18
   12.95950        3.9273787E-18
   13.12100        3.9244807E-18
   13.28250        3.9232693E-18
   13.44400        3.9228668E-18
   13.60550        3.9221455E-18
   13.76700        3.9205751E-18
   13.92850        3.9185452E-18
   14.09000        3.9169885E-18
   14.25150        3.9166770E-18
   14.41300        3.9177094E-18
   14.57450        3.9195234E-18
   14.73600        3.9213088E-18
   14.89750        3.9224623E-18
   15.05900        3.9227998E-18
   15.22050        3.9224921E-18
   15.38200        3.9219011E-18
   15.54350        3.9214437E-18
   15.70500        3.9214734E-18
   15.86650        3.9221224E-18
   16.02800        3.9231588E-18
   16.18950        3.9240145E-18
   16.35100        3.9240828E-18
   16.51250        3.9231555E-18
   16.67400        3.9216678E-18
   16.83550        3.9204883E-18
   16.99700        3.9203067E-18
   17.15850        3.9210379E-18
   17.32000        3.9217415E-18
   17.48150        3.9212203E-18
   17.64300        3.9189224E-18
   17.80450        3.9154619E-18
   17.96600        3.9123029E-18
   18.12750        3.9107747E-18
   18.28900        3.9111353E-18
   18.45050        3.9123877E-18
   18.61200        3.9130114E-18
   18.77350        3.9120680E-18
   18.93500        3.9098768E-18
   19.09650        3.9077815E-18
   19.25800        3.9071926E-18
   19.41950        3.9086079E-18
   19.58100        3.9112921E-18
   19.74250        3.9137865E-18
   19.90400        3.9148386E-18
   20.06550        3.9140975E-18
   20.22700        3.9121772E-18
   20.38850        3.9101638E-18
   20.55000        3.9089859E-18
   20.71150        3.9090012E-18
   20.87300        3.9099430E-18
   21.03450        3.9111267E-18
   21.19600        3.9117731E-18
   21.35750        3.9113574E-18
   21.51900        3.9098958E-18
   21.68050        3.9080260E-18
   21.84200        3.9067447E-18
   22.00350        3.9068435E-18
   22.16500        3.9083072E-18
   22.32650        3.9101192E-18
   22.48800        3.9107333E-18
   22.64950        3.9090508E-18
   22.81100        3.9052702E-18
   22.97250        3.9009590E-18
   23.13400        3.8981730E-18
   23.29550        3.8981432E-18
   23.45700        3.9004424E-18
   23.61850        3.9032473E-18
   23.78000        3.9045419E-18
   23.94150        3.9034252E-18
   24.10300        3.9006248E-18
   24.26450        3.8978703E-18
   24.42600        3.8966287E-18
   24.58750        3.8971059E-18
   24.74900        3.8981838E-18
   24.91050        3.8982768E-18
   25.07200        3.8964401E-18
   25.23350        3.8929576E-18
   25.39500        3.8890897E-18
   25.55650        3.8862620E-18
   25.71800        3.8852930E-18
   25.87950        3.8860920E-18
   26.04100        3.8878734E-18
   26.20250        3.8896361E-18
   26.36400        3.8906213E-18
   26.52550        3.8905923E-18
   26.68700        3.8898933E-18
   26.84850        3.8892878E-18
   27.01000        3.8895852E-18
   27.17150        3.8911788E-18
   27.33300        3.8937153E-18
   27.49450        3.8961774E-18
   27.65600        3.8974314E-18
   27.81750        3.8969827E-18
   27.97900        3.8954007E-18
   28.14050        3.8940375E-18
   28.30200        3.8941227E-18
   28.46350        3.8958615E-18
   28.62500        3.8982164E-18
   28.78650        3.8995991E-18
   28.94800        3.8989944E-18
   29.10950        3.8966895E-18
   29.27100        3.8940549E-18
   29.43250        3.8925267E-18
   29.59400        3.8925474E-18
   29.75550        3.8932571E-18
   29.91700        3.8931504E-18
   30.07850        3.8912057E-18
   30.24000        3.8876356E-18
   30.40150        3.8837263E-18
   30.56300        3.8809445E-18
   30.72450        3.8799903E-18
   30.88600        3.8804759E-18
   31.04750        3.8813436E-18
   31.20900        3.8816319E-18
   31.37050        3.8810173E-18
   31.53200        3.8798381E-18
   31.69350        3.8787256E-18
   31.85500        3.8781660E-18
   32.01650        3.8782615E-18
   32.17800        3.8787463E-18
   32.33950        3.8791346E-18
   32.50100        3.8789229E-18
   32.66250        3.8778062E-18
   32.82400        3.8758983E-18
   32.98550        3.8738225E-18
   33.14700        3.8724982E-18
   33.30850        3.8726135E-18
   33.47000        3.8740590E-18
   33.63150        3.8757953E-18
   33.79300        3.8763921E-18
   33.95450        3.8750004E-18
   34.11600        3.8720527E-18
   34.27750        3.8691324E-18
   34.43900        3.8679673E-18
   34.60050        3.8692316E-18
   34.76200        3.8720225E-18
   34.92350        3.8744449E-18
   35.08500        3.8749346E-18
   35.24650        3.8733717E-18
   35.40800        3.8711639E-18
   35.56950        3.8702300E-18
   35.73100        3.8716404E-18
   35.89250        3.8748891E-18
   36.05400        3.8782917E-18
   36.21550        3.8801458E-18
   36.37700        3.8798005E-18
   36.53850        3.8779290E-18
   36.70000        3.8759400E-18
   36.86150        3.8750256E-18
   37.02300        3.8754913E-18
   37.18450        3.8767081E-18
   37.34600        3.8775688E-18
   37.50750        3.8770948E-18
   37.66900        3.8748779E-18
   37.83050        3.8712429E-18
   37.99200        3.8671446E-18
   38.15350        3.8638318E-18
   38.31500        3.8623209E-18
   38.47650        3.8628487E-18
   38.63800        3.8646217E-18
   38.79950        3.8661611E-18
   38.96100        3.8661624E-18
   39.12250        3.8643748E-18
   39.28400        3.8618478E-18
   39.44550        3.8602770E-18
   39.60700        3.8608208E-18
   39.76850        3.8632317E-18
   39.93000        3.8659667E-18
   40.09150        3.8672646E-18
   40.25300        3.8664192E-18
   40.41450        3.8643169E-18
   40.57600        3.8628086E-18
   40.73750        3.8633818E-18
   40.89900        3.8661119E-18
   41.06050        3.8696411E-18
   41.22200        3.8721429E-18
   41.38350        3.8725139E-18
   41.54500        3.8709377E-18
   41.70650        3.8685215E-18
   41.86800        3.8664051E-18
   42.02950        3.8650481E-18
   42.19100        3.8641345E-18
   42.35250        3.8630125E-18
   42.51400        3.8612191E-18
   42.67550        3.8587202E-18
   42.83700        3.8558106E-18
   42.99850        3.8528993E-18
   43.16000        3.8503773E-18
   43.32150        3.8485686E-18
   43.48300        3.8476430E-18
   43.64450        3.8474644E-18
   43.80600        3.8475380E-18
   43.96750        3.8472567E-18
   44.12900        3.8463514E-18
   44.29050        3.8452148E-18
   44.45200        3.8447305E-18
   44.61350        3.8456268E-18
   44.77500        3.8478151E-18
   44.93650        3.8502946E-18
   45.09800        3.8517963E-18
   45.25950        3.8517483E-18
   45.42100        3.8507983E-18
   45.58250        3.8504124E-18
   45.74400        3.8517868E-18
   45.90550        3.8548912E-18
   46.06700        3.8584022E-18
   46.22850        3.8606186E-18
   46.39000        3.8606641E-18
   46.55150        3.8590643E-18
   46.71300        3.8572693E-18
   46.87450        3.8565332E-18
   47.03600        3.8570224E-18
   47.19750        3.8577938E-18
   47.35900        3.8575849E-18
   47.52050        3.8557676E-18
   47.68200        3.8527674E-18
   47.84350        3.8497255E-18
   48.00500        3.8477497E-18
   48.16650        3.8473097E-18
   48.32800        3.8481174E-18
   48.48950        3.8494062E-18
   48.65100        3.8503235E-18
   48.81250        3.8502180E-18
   48.97400        3.8488251E-18
   49.13550        3.8463911E-18
   49.29700        3.8436713E-18
   49.45850        3.8416584E-18
   49.62000        3.8410318E-18
   49.78150        3.8416402E-18
   49.94300        3.8424595E-18
   50.10450        3.8422060E-18
   50.26600        3.8402873E-18
   50.42750        3.8373843E-18
   50.58900        3.8351348E-18
   50.75050        3.8350207E-18
   50.91200        3.8372437E-18
   51.07350        3.8404470E-18
   51.23500        3.8425865E-18
   51.39650        3.8423499E-18
   51.55800        3.8400768E-18
   51.71950        3.8374952E-18
   51.88100        3.8364691E-18
   52.04250        3.8377028E-18
   52.20400        3.8403469E-18
   52.36550        3.8427143E-18
   52.52700        3.8434993E-18
   52.68850        3.8425943E-18
   52.85000        3.8409925E-18
   53.01150        3.8399746E-18
   53.17300        3.8402625E-18
   53.33450        3.8416910E-18
   53.49600        3.8434773E-18
   53.65750        3.8447363E-18
   53.81900        3.8448716E-18
   53.98050        3.8437073E-18
   54.14200        3.8414698E-18
   54.30350        3.8387343E-18
   54.46500        3.8362805E-18
   54.62650        3.8347742E-18
   54.78800        3.8343506E-18
   54.94950        3.8344255E-18
   55.11100        3.8340156E-18
   55.27250        3.8324597E-18
   55.43400        3.8300518E-18
   55.59550        3.8280087E-18
   55.75700        3.8276728E-18
   55.91850        3.8294649E-18
   56.08000        3.8324113E-18
   56.24150        3.8347034E-18
   56.40300        3.8349504E-18
   56.56450        3.8331901E-18
   56.72600        3.8308773E-18
   56.88750        3.8298214E-18
   57.04900        3.8308881E-18
   57.21050        3.8334424E-18
   57.37200        3.8359273E-18
   57.53350        3.8370746E-18
   57.69500        3.8367954E-18
   57.85650        3.8361163E-18
   58.01800        3.8362933E-18
   58.17950        3.8378571E-18
   58.34100        3.8402882E-18
   58.50250        3.8424612E-18
   58.66400        3.8434186E-18
   58.82550        3.8428714E-18
   58.98700        3.8411736E-18
   59.14850        3.8389556E-18
   59.31000        3.8367801E-18
   59.47150        3.8349950E-18
   59.63300        3.8337203E-18
   59.79450        3.8328088E-18
   59.95600        3.8318290E-18
   60.11750        3.8302226E-18
   60.27900        3.8276964E-18
   60.44050        3.8246123E-18
   60.60200        3.8219756E-18
   60.76350        3.8208589E-18
   60.92500        3.8215868E-18
   61.08650        3.8233326E-18
   61.24800        3.8245556E-18
   61.40950        3.8240717E-18
   61.57100        3.8219814E-18
   61.73250        3.8197033E-18
   61.89400        3.8190019E-18
   62.05550        3.8207030E-18
   62.21700        3.8240651E-18
   62.37850        3.8273122E-18
   62.54000        3.8289041E-18
   62.70150        3.8285885E-18
   62.86300        3.8274487E-18
   63.02450        3.8269809E-18
   63.18600        3.8279578E-18
   63.34750        3.8299256E-18
   63.50900        3.8316135E-18
   63.67050        3.8318575E-18
   63.83200        3.8303033E-18
   63.99350        3.8274780E-18
   64.15500        3.8243339E-18
   64.31650        3.8217035E-18
   64.47800        3.8200272E-18
   64.63950        3.8193580E-18
   64.80100        3.8194535E-18
   64.96250        3.8198477E-18
   65.12400        3.8199672E-18
   65.28550        3.8194072E-18
   65.44700        3.8182690E-18
   65.60850        3.8172474E-18
   65.77000        3.8172499E-18
   65.93150        3.8186996E-18
   66.09300        3.8210537E-18
   66.25450        3.8230030E-18
   66.41600        3.8233314E-18
   66.57750        3.8218288E-18
   66.73900        3.8195334E-18
   66.90050        3.8180436E-18
   67.06200        3.8183650E-18
   67.22350        3.8201781E-18
   67.38500        3.8220989E-18
   67.54650        3.8227358E-18
   67.70800        3.8217167E-18
   67.86950        3.8198924E-18
   68.03100        3.8186123E-18
   68.19250        3.8186694E-18
   68.35400        3.8197509E-18
   68.51550        3.8207493E-18
   68.67700        3.8206157E-18
   68.83850        3.8190548E-18
   69.00000        3.8165994E-18
   69.16150        3.8141298E-18
   69.32300        3.8122964E-18
   69.48450        3.8112624E-18
   69.64600        3.8108347E-18
   69.80750        3.8107346E-18
   69.96900        3.8107533E-18
   70.13050        3.8107582E-18
   70.29200        3.8106838E-18
   70.45350        3.8106044E-18
   70.61500        3.8107781E-18
   70.77650        3.8115118E-18
   70.93800        3.8128514E-18
   71.09950        3.8143581E-18
   71.26100        3.8152626E-18
   71.42250        3.8149901E-18
   71.58400        3.8136844E-18
   71.74550        3.8122459E-18
   71.90700        3.8117450E-18
   72.06850        3.8126132E-18
   72.23000        3.8142373E-18
   72.39150        3.8153478E-18
   72.55300        3.8149520E-18
   72.71450        3.8131037E-18
   72.87600        3.8108835E-18
   73.03750        3.8095956E-18
   73.19900        3.8097929E-18
   73.36050        3.8108959E-18
   73.52200        3.8116867E-18
   73.68350        3.8112678E-18
   73.84500        3.8097395E-18
   74.00650        3.8081075E-18
   74.16800        3.8075397E-18
   74.32950        3.8085712E-18
   74.49100        3.8108012E-18
   74.65250        3.8132360E-18
   74.81400        3.8149454E-18
   74.97550        3.8155641E-18
   75.13700        3.8153710E-18
   75.29850        3.8150045E-18
   75.46000        3.8150600E-18
   75.62150        3.8157862E-18
   75.78300        3.8169654E-18
   75.94450        3.8179890E-18
   76.10600        3.8181185E-18
   76.26750        3.8168872E-18
   76.42900        3.8144582E-18
   76.59050        3.8116925E-18
   76.75200        3.8097561E-18
   76.91350        3.8094339E-18
   77.07500        3.8105800E-18
   77.23650        3.8121487E-18
   77.39800        3.8128626E-18
   77.55950        3.8121003E-18
   77.72100        3.8103591E-18
   77.88250        3.8089165E-18
   78.04400        3.8089024E-18
   78.20550        3.8104559E-18
   78.36700        3.8125850E-18
   78.52850        3.8138473E-18
   78.69000        3.8133419E-18
   78.85150        3.8112975E-18
   79.01300        3.8088648E-18
   79.17450        3.8073035E-18
   79.33600        3.8071662E-18
   79.49750        3.8080244E-18
   79.65900        3.8088350E-18
   79.82050        3.8086336E-18
   79.98200        3.8070835E-18
   80.14350        3.8045783E-18
   80.30500        3.8019289E-18
   80.46650        3.7998771E-18
   80.62800        3.7987281E-18
   80.78950        3.7982574E-18
   80.95100        3.7979055E-18
   81.11250        3.7971461E-18
   81.27400        3.7958309E-18
   81.43550        3.7943197E-18
   81.59700        3.7932861E-18
   81.75850        3.7932861E-18
   81.92000        3.7943536E-18
   82.08150        3.7959269E-18
   82.24300        3.7972016E-18
   82.40450        3.7977070E-18
   82.56600        3.7976660E-18
   82.72750        3.7978621E-18
   82.88900        3.7990640E-18
   83.05050        3.8014384E-18
   83.21200        3.8043980E-18
   83.37350        3.8069999E-18
   83.53500        3.8086080E-18
   83.69650        3.8093044E-18
   83.85800        3.8097470E-18
   84.01950        3.8106110E-18
   84.18100        3.8120441E-18
   84.34250        3.8135570E-18
   84.50400        3.8144032E-18
   84.66550        3.8141377E-18
   84.82700        3.8129370E-18
   84.98850        3.8114886E-18
   85.15000        3.8105535E-18
   85.31150        3.8105353E-18
   85.47300        3.8112901E-18
   85.63450        3.8122653E-18
   85.79600        3.8128307E-18
   85.95750        3.8126206E-18
   86.11900        3.8117239E-18
   86.28050        3.8106370E-18
   86.44200        3.8099840E-18
   86.60350        3.8101291E-18
   86.76500        3.8108939E-18
   86.92650        3.8115862E-18
   87.08800        3.8113956E-18
   87.24950        3.8099401E-18
   87.41100        3.8075914E-18
   87.57250        3.8052839E-18
   87.73400        3.8038955E-18
   87.89550        3.8036205E-18
   88.05700        3.8038194E-18
   88.21850        3.8035005E-18
   88.38000        3.8020931E-18
   88.54150        3.7999168E-18
   88.70300        3.7979642E-18
   88.86450        3.7971565E-18
   89.02600        3.7976433E-18
   89.18750        3.7986925E-18
   89.34900        3.7992463E-18
   89.51050        3.7987033E-18
   89.67200        3.7973306E-18
   89.83350        3.7960203E-18
   89.99500        3.7956105E-18
   90.15650        3.7963020E-18
   90.31800        3.7975816E-18
   90.47950        3.7986355E-18
   90.64100        3.7988993E-18
   90.80250        3.7983683E-18
   90.96400        3.7975109E-18
   91.12550        3.7969418E-18
   91.28700        3.7970742E-18
   91.44850        3.7979262E-18
   91.61000        3.7991190E-18
   91.77150        3.8000471E-18
   91.93300        3.8001873E-18
   92.09450        3.7994548E-18
   92.25600        3.7983824E-18
   92.41750        3.7979439E-18
   92.57900        3.7990019E-18
   92.74050        3.8016663E-18
   92.90200        3.8050461E-18
   93.06350        3.8076737E-18
   93.22500        3.8084301E-18
   93.38650        3.8073403E-18
   93.54800        3.8056169E-18
   93.70950        3.8048360E-18
   93.87100        3.8057993E-18
   94.03250        3.8079127E-18
   94.19400        3.8095861E-18
   94.35550        3.8093785E-18
   94.51700        3.8070566E-18
   94.67850        3.8037793E-18
   94.84000        3.8012994E-18
   95.00150        3.8007696E-18
   95.16300        3.8020236E-18
   95.32450        3.8037909E-18
   95.48600        3.8046226E-18
   95.64750        3.8038302E-18
   95.80900        3.8018288E-18
   95.97050        3.7997360E-18
   96.13200        3.7986053E-18
   96.29350        3.7988146E-18
   96.45500        3.7999176E-18
   96.61650        3.8009594E-18
   96.77800        3.8010095E-18
   96.93950        3.7996397E-18
   97.10100        3.7971610E-18
   97.26250        3.7945091E-18
   97.42400        3.7927935E-18
   97.58550        3.7926988E-18
   97.74700        3.7940529E-18
   97.90850        3.7958805E-18
   98.07000        3.7969960E-18
   98.23150        3.7968045E-18
   98.39300        3.7957618E-18
   98.55450        3.7951026E-18
   98.71600        3.7959467E-18
   98.87750        3.7984001E-18
   99.03900        3.8013424E-18
   99.20050        3.8031304E-18
   99.36200        3.8027432E-18
   99.52350        3.8005409E-18
   99.68500        3.7980432E-18
   99.84650        3.7968769E-18
   100.0080        3.7976457E-18
   100.1695        3.7995532E-18
   100.3310        3.8010355E-18
   100.4925        3.8009048E-18
   100.6540        3.7991847E-18
   100.8155        3.7970469E-18
   100.9770        3.7959488E-18
   101.1385        3.7966333E-18
   101.3000        3.7986756E-18
   101.4615        3.8008486E-18
   101.6230        3.8019686E-18
   101.7845        3.8016295E-18
   101.9460        3.8003659E-18
   102.1075        3.7992343E-18
   102.2690        3.7991177E-18
   102.4305        3.8002162E-18
   102.5920        3.8019471E-18
   102.7535        3.8032913E-18
   102.9150        3.8033562E-18
   103.0765        3.8018739E-18
   103.2380        3.7993630E-18
   103.3995        3.7968583E-18
   103.5610        3.7953247E-18
   103.7225        3.7950654E-18
   103.8840        3.7955021E-18
   104.0455        3.7955112E-18
   104.2070        3.7941861E-18
   104.3685        3.7915374E-18
   104.5300        3.7886344E-18
   104.6915        3.7870148E-18
   104.8530        3.7876989E-18
   105.0145        3.7904757E-18
   105.1760        3.7939900E-18
   105.3375        3.7966122E-18
   105.4990        3.7974948E-18
   105.6605        3.7970882E-18
   105.8220        3.7967429E-18
   105.9835        3.7976730E-18
   106.1450        3.8000380E-18
   106.3065        3.8027792E-18
   106.4680        3.8043252E-18
   106.6295        3.8036569E-18
   106.7910        3.8009905E-18
   106.9525        3.7976300E-18
   107.1140        3.7951286E-18
   107.2755        3.7943594E-18
   107.4370        3.7950836E-18
   107.5985        3.7962358E-18
   107.7600        3.7966502E-18
   107.9215        3.7957432E-18
   108.0830        3.7937882E-18
   108.2445        3.7916685E-18
   108.4060        3.7903426E-18
   108.5675        3.7903223E-18
   108.7290        3.7914229E-18
   108.8905        3.7928791E-18
   109.0520        3.7937605E-18
   109.2135        3.7934974E-18
   109.3750        3.7922492E-18
   109.5365        3.7908964E-18
   109.6980        3.7905870E-18
   109.8595        3.7920449E-18
   110.0210        3.7950525E-18
   110.1825        3.7984882E-18
   110.3440        3.8009718E-18
   110.5055        3.8017262E-18
   110.6670        3.8010819E-18
   110.8285        3.8002290E-18
   110.9900        3.8003726E-18
   111.1515        3.8018590E-18
   111.3130        3.8039087E-18
   111.4745        3.8051499E-18
   111.6360        3.8045854E-18
   111.7975        3.8022796E-18
   111.9590        3.7992976E-18
   112.1205        3.7969555E-18
   112.2820        3.7959509E-18
   112.4435        3.7959947E-18
   112.6050        3.7961432E-18
   112.7665        3.7955199E-18
   112.9280        3.7938908E-18
   113.0895        3.7917401E-18
   113.2510        3.7898785E-18
   113.4125        3.7889372E-18
   113.5740        3.7890575E-18
   113.7355        3.7899182E-18
   113.8970        3.7909774E-18
   114.0585        3.7917595E-18
   114.2200        3.7920586E-18
   114.3815        3.7920222E-18
   114.5430        3.7920900E-18
   114.7045        3.7927654E-18
   114.8660        3.7942700E-18
   115.0275        3.7962635E-18
   115.1890        3.7978894E-18
   115.3505        3.7982239E-18
   115.5120        3.7969079E-18
   115.6735        3.7944967E-18
   115.8350        3.7921921E-18
   115.9965        3.7910680E-18
   116.1580        3.7913129E-18
   116.3195        3.7920875E-18
   116.4810        3.7921611E-18
   116.6425        3.7908898E-18
   116.8040        3.7888069E-18
   116.9655        3.7873292E-18
   117.1270        3.7877709E-18
   117.2885        3.7903914E-18
   117.4500        3.7941799E-18
   117.6115        3.7975395E-18
   117.7730        3.7993493E-18
   117.9345        3.7996202E-18
   118.0960        3.7993258E-18
   118.2575        3.7996095E-18
   118.4190        3.8009776E-18
   118.5805        3.8030266E-18
   118.7420        3.8047851E-18