  -27.90000        1.0023453E-17
  -27.73850        1.0052425E-17
  -27.57700        1.0096242E-17
  -27.41550        1.0135402E-17
  -27.25400        1.0156089E-17
  -27.09250        1.0157739E-17
  -26.93100        1.0152684E-17
  -26.76950        1.0158166E-17
  -26.60800        1.0185538E-17
  -26.44650        1.0233072E-17
  -26.28500        1.0286650E-17
  -26.12350        1.0327909E-17
  -25.96200        1.0344993E-17
  -25.80050        1.0339534E-17
  -25.63900        1.0325740E-17
  -25.47750        1.0322108E-17
  -25.31600        1.0340682E-17
  -25.15450        1.0380151E-17
  -24.99300        1.0426849E-17
  -24.83150        1.0462970E-17
  -24.67000        1.0477144E-17
  -24.50850        1.0471073E-17
  -24.34700        1.0458379E-17
  -24.18550        1.0456376E-17
  -24.02400        1.0475744E-17
  -23.86250        1.0514208E-17
  -23.70100        1.0557993E-17
  -23.53950        1.0590098E-17
  -23.37800        1.0600455E-17
  -23.21650        1.0591869E-17
  -23.05500        1.0578268E-17
  -22.89350        1.0576314E-17
  -22.73200        1.0595441E-17
  -22.57050        1.0632261E-17
  -22.40900        1.0672636E-17
  -22.24750        1.0700149E-17
  -22.08600        1.0705879E-17
  -21.92450        1.0693650E-17
  -21.76300        1.0677672E-17
  -21.60150        1.0674031E-17
  -21.44000        1.0691161E-17
  -21.27850        1.0724985E-17
  -21.11700        1.0761592E-17
  -20.95550        1.0785777E-17
  -20.79400        1.0790281E-17
  -20.63250        1.0780143E-17
  -20.47100        1.0769580E-17
  -20.30950        1.0773275E-17
  -20.14800        1.0797347E-17
  -19.98650        1.0835470E-17
  -19.82500        1.0872498E-17
  -19.66350        1.0893450E-17
  -19.50200        1.0892447E-17
  -19.34050        1.0876224E-17
  -19.17900        1.0860096E-17
  -19.01750        1.0858809E-17
  -18.85600        1.0877797E-17
  -18.69450        1.0910133E-17
  -18.53300        1.0940963E-17
  -18.37150        1.0956774E-17
  -18.21000        1.0953789E-17
  -18.04850        1.0940400E-17
  -17.88700        1.0932110E-17
  -17.72550        1.0942026E-17
  -17.56400        1.0972662E-17
  -17.40250        1.1014065E-17
  -17.24100        1.1049452E-17
  -17.07950        1.1065049E-17
  -16.91800        1.1058211E-17
  -16.75650        1.1038963E-17
  -16.59500        1.1023998E-17
  -16.43350        1.1026736E-17
  -16.27200        1.1049399E-17
  -16.11050        1.1081880E-17
  -15.94900        1.1108105E-17
  -15.78750        1.1116062E-17
  -15.62600        1.1105431E-17
  -15.46450        1.1088180E-17
  -15.30300        1.1081643E-17
  -15.14150        1.1098171E-17
  -14.98000        1.1137544E-17
  -14.81850        1.1186742E-17
  -14.65700        1.1227325E-17
  -14.49550        1.1246094E-17
  -14.33400        1.1242705E-17
  -14.17250        1.1229657E-17
  -14.01100        1.1224609E-17
  -13.84950        1.1239580E-17
  -13.68800        1.1273499E-17
  -13.52650        1.1312632E-17
  -13.36500        1.1338698E-17
  -13.20350        1.1339874E-17
  -13.04200        1.1318094E-17
  -12.88050        1.1288208E-17
  -12.71900        1.1269418E-17
  -12.55750        1.1274044E-17
  -12.39600        1.1300339E-17
  -12.23450        1.1333657E-17
  -12.07300        1.1355357E-17
  -11.91150        1.1354118E-17
  -11.75000        1.1332943E-17
  -11.58850        1.1307598E-17
  -11.42700        1.1297406E-17
  -11.26550        1.1313830E-17
  -11.10400        1.1353635E-17
  -10.94250        1.1400708E-17
  -10.78100        1.1435467E-17
  -10.61950        1.1446262E-17
  -10.45800        1.1436011E-17
  -10.29650        1.1420136E-17
  -10.13500        1.1417057E-17
  -9.973500        1.1436922E-17
  -9.812000        1.1475300E-17
  -9.650500        1.1515621E-17
  -9.489000        1.1538934E-17
  -9.327500        1.1535205E-17
  -9.166000        1.1509439E-17
  -9.004500        1.1478967E-17
  -8.843000        1.1463494E-17
  -8.681500        1.1473769E-17
  -8.520000        1.1505593E-17
  -8.358500        1.1542673E-17
  -8.197000        1.1566574E-17
  -8.035500        1.1567810E-17
  -7.874000        1.1551454E-17
  -7.712500        1.1533928E-17
  -7.551000        1.1532933E-17
  -7.389500        1.1556605E-17
  -7.228000        1.1598401E-17
  -7.066500        1.1640823E-17
  -6.905000        1.1665727E-17
  -6.743500        1.1665050E-17
  -6.582000        1.1645541E-17
  -6.420500        1.1624710E-17
  -6.259000        1.1620434E-17
  -6.097500        1.1640486E-17
  -5.936000        1.1678186E-17
  -5.774500        1.1716714E-17
  -5.613000        1.1739386E-17
  -5.451500        1.1739669E-17
  -5.290000        1.1724939E-17
  -5.128500        1.1711782E-17
  -4.967000        1.1715751E-17
  -4.805500        1.1741782E-17
  -4.644000        1.1781050E-17
  -4.482500        1.1816137E-17
  -4.321000        1.1831387E-17
  -4.159500        1.1822223E-17
  -3.998000        1.1797836E-17
  -3.836500        1.1775644E-17
  -3.675000        1.1770889E-17
  -3.513500        1.1787633E-17
  -3.352000        1.1816553E-17
  -3.190500        1.1840848E-17
  -3.029000        1.1846637E-17
  -2.867500        1.1831524E-17
  -2.706000        1.1806140E-17
  -2.544500        1.1787711E-17
  -2.383000        1.1789579E-17
  -2.221500        1.1813071E-17
  -2.060000        1.1846685E-17
  -1.898500        1.1873111E-17
  -1.737000        1.1879807E-17
  -1.575500        1.1866679E-17
  -1.414000        1.1846144E-17
  -1.252500        1.1835543E-17
  -1.091000        1.1846514E-17
 -0.9295000        1.1877792E-17
 -0.7680000        1.1915875E-17
 -0.6065000        1.1943117E-17
 -0.4450000        1.1948377E-17
 -0.2835000        1.1933702E-17
 -0.1220000        1.1913011E-17
  3.9500002E-02    1.1903593E-17
  0.2010000        1.1915571E-17
  0.3625000        1.1945788E-17
  0.5240000        1.1979807E-17
  0.6855000        1.2000846E-17
  0.8470000        1.2000212E-17
   1.008500        1.1982877E-17
   1.170000        1.1964739E-17
   1.331500        1.1963162E-17
   1.493000        1.1986443E-17
   1.654500        1.2028597E-17
   1.816000        1.2072648E-17
   1.977500        1.2100548E-17
   2.139000        1.2103772E-17
   2.300500        1.2088224E-17
   2.462000        1.2070467E-17
   2.623500        1.2067505E-17
   2.785000        1.2086286E-17
   2.946500        1.2119337E-17
   3.108000        1.2149248E-17
   3.269500        1.2159362E-17
   3.431000        1.2144238E-17
   3.592500        1.2113450E-17
   3.754000        1.2086335E-17
   3.915500        1.2080719E-17
   4.077000        1.2102396E-17
   4.238500        1.2141707E-17
   4.400000        1.2179340E-17
   4.561500        1.2197896E-17
   4.723000        1.2192247E-17
   4.884500        1.2172433E-17
   5.046000        1.2157350E-17
   5.207500        1.2163041E-17
   5.369000        1.2192709E-17
   5.530500        1.2234498E-17
   5.692000        1.2268408E-17
   5.853500        1.2278208E-17
   6.015000        1.2261164E-17
   6.176500        1.2229721E-17
   6.338000        1.2204153E-17
   6.499500        1.2200547E-17
   6.661000        1.2221354E-17
   6.822500        1.2254137E-17
   6.984000        1.2279236E-17
   7.145500        1.2281723E-17
   7.307000        1.2260494E-17
   7.468500        1.2229027E-17
   7.630000        1.2207378E-17
   7.791500        1.2210240E-17
   7.953000        1.2238201E-17
   8.114500        1.2277489E-17
   8.276000        1.2308308E-17
   8.437500        1.2316736E-17
   8.599000        1.2303020E-17
   8.760500        1.2281262E-17
   8.922000        1.2270713E-17
   9.083500        1.2283986E-17
   9.245000        1.2319320E-17
   9.406500        1.2361571E-17
   9.568000        1.2391299E-17
   9.729500        1.2396419E-17
   9.891000        1.2379355E-17
   10.05250        1.2355403E-17
   10.21400        1.2343402E-17
   10.37550        1.2354427E-17
   10.53700        1.2385367E-17
   10.69850        1.2421196E-17
   10.86000        1.2444425E-17
   11.02150        1.2445873E-17
   11.18300        1.2430222E-17
   11.34450        1.2413025E-17
   11.50600        1.2411094E-17
   11.66750        1.2432182E-17
   11.82900        1.2470225E-17
   11.99050        1.2508966E-17
   12.15200        1.2531698E-17
   12.31350        1.2531164E-17
   12.47500        1.2513656E-17
   12.63650        1.2494894E-17
   12.79800        1.2490299E-17
   12.95950        1.2505623E-17
   13.12100        1.2533628E-17
   13.28250        1.2558803E-17
   13.44400        1.2567159E-17
   13.60550        1.2555040E-17
   13.76700        1.2531539E-17
   13.92850        1.2513013E-17
   14.09000        1.2513081E-17
   14.25150        1.2534280E-17
   14.41300        1.2566510E-17
   14.57450        1.2593242E-17
   14.73600        1.2601647E-17
   14.89750        1.2590403E-17
   15.05900        1.2570351E-17
   15.22050        1.2557656E-17
   15.38200        1.2563728E-17
   15.54350        1.2588188E-17
   15.70500        1.2619211E-17
   15.86650        1.2640992E-17
   16.02800        1.2643662E-17
   16.18950        1.2629484E-17
   16.35100        1.2611494E-17
   16.51250        1.2605460E-17
   16.67400        1.2620134E-17
   16.83550        1.2651824E-17
   16.99700        1.2686579E-17
   17.15850        1.2708642E-17
   17.32000        1.2709960E-17
   17.48150        1.2694942E-17
   17.64300        1.2677621E-17
   17.80450        1.2672974E-17
   17.96600        1.2687734E-17
   18.12750        1.2716293E-17
   18.28900        1.2744158E-17
   18.45050        1.2756860E-17
   18.61200        1.2748868E-17
   18.77350        1.2727073E-17
   18.93500        1.2706708E-17
   19.09650        1.2702162E-17
   19.25800        1.2718282E-17
   19.41950        1.2747460E-17
   19.58100        1.2774320E-17
   19.74250        1.2785148E-17
   19.90400        1.2776352E-17
   20.06550        1.2756755E-17
   20.22700        1.2742311E-17
   20.38850        1.2746448E-17
   20.55000        1.2771934E-17
   20.71150        1.2809219E-17
   20.87300        1.2842240E-17
   21.03450        1.2858120E-17
   21.19600        1.2854792E-17
   21.35750        1.2841933E-17
   21.51900        1.2834708E-17
   21.68050        1.2844217E-17
   21.84200        1.2870527E-17
   22.00350        1.2902532E-17
   22.16500        1.2924661E-17
   22.32650        1.2926295E-17
   22.48800        1.2908168E-17
   22.64950        1.2881912E-17
   22.81100        1.2863157E-17
   22.97250        1.2862388E-17
   23.13400        1.2879095E-17
   23.29550        1.2902613E-17
   23.45700        1.2919003E-17
   23.61850        1.2919709E-17
   23.78000        1.2906756E-17
   23.94150        1.2891408E-17
   24.10300        1.2887204E-17
   24.26450        1.2901639E-17
   24.42600        1.2931530E-17
   24.58750        1.2964863E-17
   24.74900        1.2987910E-17
   24.91050        1.2993337E-17
   25.07200        1.2984358E-17
   25.23350        1.2972514E-17
   25.39500        1.2970443E-17
   25.55650        1.2984132E-17
   25.71800        1.3009366E-17
   25.87950        1.3034483E-17
   26.04100        1.3047678E-17
   26.20250        1.3044292E-17
   26.36400        1.3029588E-17
   26.52550        1.3015392E-17
   26.68700        1.3012763E-17
   26.84850        1.3025305E-17
   27.01000        1.3047214E-17
   27.17150        1.3067199E-17
   27.33300        1.3075682E-17
   27.49450        1.3070789E-17
   27.65600        1.3059417E-17
   27.81750        1.3052846E-17
   27.97900        1.3059717E-17
   28.14050        1.3080770E-17
   28.30200        1.3108503E-17
   28.46350        1.3131844E-17
   28.62500        1.3142841E-17
   28.78650        1.3141260E-17
   28.94800        1.3134318E-17
   29.10950        1.3131869E-17
   29.27100        1.3140084E-17
   29.43250        1.3157572E-17
   29.59400        1.3176299E-17
   29.75550        1.3186680E-17
   29.91700        1.3183662E-17
   30.07850        1.3170004E-17
   30.24000        1.3154717E-17
   30.40150        1.3147612E-17
   30.56300        1.3153350E-17
   30.72450        1.3168698E-17
   30.88600        1.3184719E-17
   31.04750        1.3192532E-17
   31.20900        1.3189000E-17
   31.37050        1.3178735E-17
   31.53200        1.3171136E-17
   31.69350        1.3174361E-17
   31.85500        1.3190073E-17
   32.01650        1.3212356E-17
   32.17800        1.3231481E-17
   32.33950        1.3240120E-17
   32.50100        1.3238002E-17
   32.66250        1.3232035E-17
   32.82400        1.3231843E-17
   32.98550        1.3243594E-17
   33.14700        1.3266061E-17
   33.30850        1.3291378E-17
   33.47000        1.3309938E-17
   33.63150        1.3316273E-17
   33.79300        1.3312223E-17
   33.95450        1.3305500E-17
   34.11600        1.3304656E-17
   34.27750        1.3313685E-17
   34.43900        1.3329623E-17
   34.60050        1.3344557E-17
   34.76200        1.3350730E-17
   34.92350        1.3345506E-17
   35.08500        1.3333147E-17
   35.24650        1.3322325E-17
   35.40800        1.3320950E-17
   35.56950        1.3331486E-17
   35.73100        1.3349635E-17
   35.89250        1.3367151E-17
   36.05400        1.3377026E-17
   36.21550        1.3377825E-17
   36.37700        1.3374474E-17
   36.53850        1.3375013E-17
   36.70000        1.3385399E-17
   36.86150        1.3405642E-17
   37.02300        1.3429757E-17
   37.18450        1.3449507E-17
   37.34600        1.3459531E-17
   37.50750        1.3460552E-17
   37.66900        1.3458633E-17
   37.83050        1.3461008E-17
   37.99200        1.3471266E-17
   38.15350        1.3487004E-17
   38.31500        1.3501426E-17
   38.47650        1.3507755E-17
   38.63800        1.3503517E-17
   38.79950        1.3491952E-17
   38.96100        1.3479777E-17
   39.12250        1.3472894E-17
   39.28400        1.3472916E-17
   39.44550        1.3476656E-17
   39.60700        1.3478772E-17
   39.76850        1.3475648E-17
   39.93000        1.3467960E-17
   40.09150        1.3460289E-17
   40.25300        1.3458193E-17
   40.41450        1.3464678E-17
   40.57600        1.3478375E-17
   40.73750        1.3494476E-17
   40.89900        1.3507755E-17
   41.06050        1.3515666E-17
   41.22200        1.3519588E-17
   41.38350        1.3523516E-17
   41.54500        1.3531104E-17
   41.70650        1.3543040E-17
   41.86800        1.3556478E-17
   42.02950        1.3566874E-17
   42.19100        1.3571039E-17
   42.35250        1.3569361E-17
   42.51400        1.3565708E-17
   42.67550        1.3565022E-17
   42.83700        1.3570169E-17
   42.99850        1.3580124E-17
   43.16000        1.3590726E-17
   43.32150        1.3597552E-17
   43.48300        1.3598989E-17
   43.64450        1.3597427E-17
   43.80600        1.3597743E-17
   43.96750        1.3604063E-17
   44.12900        1.3616995E-17
   44.29050        1.3633218E-17
   44.45200        1.3647693E-17
   44.61350        1.3657016E-17
   44.77500        1.3661631E-17
   44.93650        1.3665441E-17
   45.09800        1.3673068E-17
   45.25950        1.3686610E-17
   45.42100        1.3704060E-17
   45.58250        1.3720411E-17
   45.74400        1.3730694E-17
   45.90550        1.3732989E-17
   46.06700        1.3729466E-17
   46.22850        1.3724898E-17
   46.39000        1.3723646E-17
   46.55150        1.3727068E-17
   46.71300        1.3732923E-17
   46.87450        1.3737075E-17
   47.03600        1.3736375E-17
   47.19750        1.3730866E-17
   47.35900        1.3723966E-17
   47.52050        1.3720504E-17
   47.68200        1.3723813E-17
   47.84350        1.3733700E-17
   48.00500        1.3746492E-17
   48.16650        1.3757204E-17
   48.32800        1.3762471E-17
   48.48950        1.3762495E-17
   48.65100        1.3760799E-17
   48.81250        1.3761919E-17
   48.97400        1.3768497E-17
   49.13550        1.3779584E-17
   49.29700        1.3791251E-17
   49.45850        1.3799120E-17
   49.62000        1.3801193E-17
   49.78150        1.3799159E-17
   49.94300        1.3797330E-17
   50.10450        1.3799879E-17
   50.26600        1.3808155E-17
   50.42750        1.3819760E-17
   50.58900        1.3829985E-17
   50.75050        1.3834673E-17
   50.91200        1.3832716E-17
   51.07350        1.3826644E-17
   51.23500        1.3821026E-17
   51.39650        1.3819724E-17
   51.55800        1.3823727E-17
   51.71950        1.3830817E-17
   51.88100        1.3837195E-17
   52.04250        1.3839996E-17
   52.20400        1.3839160E-17
   52.36550        1.3837569E-17
   52.52700        1.3839371E-17
   52.68850        1.3847510E-17
   52.85000        1.3861894E-17
   53.01150        1.3879285E-17
   53.17300        1.3894985E-17
   53.33450        1.3905412E-17
   53.49600        1.3910091E-17
   53.65750        1.3911884E-17
   53.81900        1.3915286E-17
   53.98050        1.3923667E-17
   54.14200        1.3937098E-17
   54.30350        1.3952095E-17
   54.46500        1.3963553E-17
   54.62650        1.3967810E-17
   54.78800        1.3964968E-17
   54.94950        1.3959012E-17
   55.11100        1.3955525E-17
   55.27250        1.3958274E-17
   55.43400        1.3966811E-17
   55.59550        1.3976599E-17
   55.75700        1.3981791E-17
   55.91850        1.3978997E-17
   56.08000        1.3969724E-17
   56.24150        1.3959881E-17
   56.40300        1.3956489E-17
   56.56450        1.3963550E-17
   56.72600        1.3979549E-17
   56.88750        1.3998242E-17
   57.04900        1.4012324E-17
   57.21050        1.4017838E-17
   57.37200        1.4016592E-17
   57.53350        1.4015034E-17
   57.69500        1.4020114E-17
   57.85650        1.4034649E-17
   58.01800        1.4055068E-17
   58.17950        1.4073117E-17
   58.34100        1.4080672E-17
   58.50250        1.4074784E-17
   58.66400        1.4059824E-17
   58.82550        1.4045198E-17
   58.98700        1.4039846E-17
   59.14850        1.4046797E-17
   59.31000        1.4061243E-17
   59.47150        1.4073520E-17
   59.63300        1.4075287E-17
   59.79450        1.4065103E-17
   59.95600        1.4049747E-17
   60.11750        1.4040239E-17
   60.27900        1.4044890E-17
   60.44050        1.4063733E-17
   60.60200        1.4088041E-17
   60.76350        1.4105469E-17
   60.92500        1.4107749E-17
   61.08650        1.4096038E-17
   61.24800        1.4080394E-17
   61.40950        1.4073477E-17
   61.57100        1.4082399E-17
   61.73250        1.4103951E-17
   61.89400        1.4126418E-17
   62.05550        1.4137003E-17
   62.21700        1.4130172E-17
   62.37850        1.4111547E-17
   62.54000        1.4094661E-17
   62.70150        1.4092476E-17
   62.86300        1.4109058E-17
   63.02450        1.4136780E-17
   63.18600        1.4161024E-17
   63.34750        1.4169511E-17
   63.50900        1.4160298E-17
   63.67050        1.4143273E-17
   63.83200        1.4133974E-17
   63.99350        1.4143579E-17
   64.15500        1.4171442E-17
   64.31650        1.4205073E-17
   64.47800        1.4227789E-17
   64.63950        1.4229285E-17
   64.80100        1.4212377E-17
   64.96250        1.4191432E-17
   65.12400        1.4183294E-17
   65.28550        1.4196378E-17
   65.44700        1.4224956E-17
   65.60850        1.4252512E-17
   65.77000        1.4262242E-17
   65.93150        1.4248067E-17
   66.09300        1.4219008E-17
   66.25450        1.4193868E-17
   66.41600        1.4189410E-17
   66.57750        1.4209548E-17
   66.73900        1.4242622E-17
   66.90050        1.4268730E-17
   67.06200        1.4272530E-17
   67.22350        1.4253303E-17
   67.38500        1.4225650E-17
   67.54650        1.4210174E-17
   67.70800        1.4220085E-17
   67.86950        1.4252390E-17
   68.03100        1.4289484E-17
   68.19250        1.4310274E-17
   68.35400        1.4303740E-17
   68.51550        1.4276146E-17
   68.67700        1.4247208E-17
   68.83850        1.4237558E-17
   69.00000        1.4255589E-17
   69.16150        1.4292094E-17
   69.32300        1.4326226E-17
   69.48450        1.4338919E-17
   69.64600        1.4325188E-17
   69.80750        1.4297347E-17
   69.96900        1.4277088E-17
   70.13050        1.4281452E-17
   70.29200        1.4311712E-17
   70.45350        1.4352346E-17
   70.61500        1.4380791E-17
   70.77650        1.4381796E-17
   70.93800        1.4357165E-17
   71.09950        1.4324632E-17
   71.26100        1.4306545E-17
   71.42250        1.4315610E-17
   71.58400        1.4346852E-17
   71.74550        1.4381025E-17
   71.90700        1.4397236E-17
   72.06850        1.4386658E-17
   72.23000        1.4358408E-17
   72.39150        1.4333713E-17
   72.55300        1.4332137E-17
   72.71450        1.4358778E-17
   72.87600        1.4400829E-17
   73.03750        1.4435691E-17
   73.19900        1.4445462E-17
   73.36050        1.4428311E-17
   73.52200        1.4399408E-17
   73.68350        1.4380843E-17
   73.84500        1.4387142E-17
   74.00650        1.4415865E-17
   74.16800        1.4449320E-17
   74.32950        1.4466218E-17
   74.49100        1.4455610E-17
   74.65250        1.4424000E-17
   74.81400        1.4391116E-17
   74.97550        1.4377148E-17
   75.13700        1.4389821E-17
   75.29850        1.4419614E-17
   75.46000        1.4446180E-17
   75.62150        1.4451654E-17
   75.78300        1.4432232E-17
   75.94450        1.4400559E-17
   76.10600        1.4377468E-17
   76.26750        1.4378517E-17
   76.42900        1.4404009E-17
   76.59050        1.4438893E-17
   76.75200        1.4462537E-17
   76.91350        1.4461971E-17
   77.07500        1.4440044E-17
   77.23650        1.4413311E-17
   77.39800        1.4401075E-17
   77.55950        1.4412777E-17
   77.72100        1.4441923E-17
   77.88250        1.4470431E-17
   78.04400        1.4480516E-17
   78.20550        1.4466340E-17
   78.36700        1.4437873E-17
   78.52850        1.4414516E-17
   78.69000        1.4412719E-17
   78.85150        1.4435668E-17
   79.01300        1.4471690E-17
   79.17450        1.4502233E-17
   79.33600        1.4514093E-17
   79.49750        1.4507833E-17
   79.65900        1.4497027E-17
   79.82050        1.4498939E-17
   79.98200        1.4522939E-17
   80.14350        1.4564164E-17
   80.30500        1.4606529E-17
   80.46650        1.4632914E-17
   80.62800        1.4635844E-17
   80.78950        1.4621784E-17
   80.95100        1.4606445E-17
   81.11250        1.4604378E-17
   81.27400        1.4619698E-17
   81.43550        1.4643848E-17
   81.59700        1.4661659E-17
   81.75850        1.4661522E-17
   81.92000        1.4643024E-17
   82.08150        1.4617167E-17
   82.24300        1.4599175E-17
   82.40450        1.4598740E-17
   82.56600        1.4614013E-17
   82.72750        1.4633143E-17
   82.88900        1.4642215E-17
   83.05050        1.4634312E-17
   83.21200        1.4613840E-17
   83.37350        1.4593410E-17
   83.53500        1.4585487E-17
   83.69650        1.4594310E-17
   83.85800        1.4613370E-17
   84.01950        1.4629943E-17
   84.18100        1.4633573E-17
   84.34250        1.4622839E-17
   84.50400        1.4606034E-17
   84.66550        1.4595393E-17
   84.82700        1.4598883E-17
   84.98850        1.4614971E-17
   85.15000        1.4633793E-17
   85.31150        1.4643802E-17
   85.47300        1.4639366E-17
   85.63450        1.4624302E-17
   85.79600        1.4609068E-17
   85.95750        1.4603720E-17
   86.11900        1.4611327E-17
   86.28050        1.4626239E-17
   86.44200        1.4638152E-17
   86.60350        1.4639138E-17
   86.76500        1.4628873E-17
   86.92650        1.4614698E-17
   87.08800        1.4606590E-17
   87.24950        1.4610521E-17
   87.41100        1.4624631E-17
   87.57250        1.4640657E-17
   87.73400        1.4649559E-17
   87.89550        1.4647534E-17
   88.05700        1.4638453E-17
   88.21850        1.4631222E-17
   88.38000        1.4633876E-17
   88.54150        1.4648346E-17
   88.70300        1.4669327E-17
   88.86450        1.4687885E-17
   89.02600        1.4697388E-17
   89.18750        1.4697757E-17
   89.34900        1.4695280E-17
   89.51050        1.4698162E-17
   89.67200        1.4710800E-17
   89.83350        1.4730667E-17
   89.99500        1.4749858E-17
   90.15650        1.4760254E-17
   90.31800        1.4758856E-17
   90.47950        1.4749729E-17
   90.64100        1.4741287E-17
   90.80250        1.4740789E-17
   90.96400        1.4749762E-17
   91.12550        1.4763362E-17
   91.28700        1.4774053E-17
   91.44850        1.4776963E-17
   91.61000        1.4773295E-17
   91.77150        1.4769497E-17
   91.93300        1.4772814E-17
   92.09450        1.4786318E-17
   92.25600        1.4806725E-17
   92.41750        1.4826438E-17
   92.57900        1.4838398E-17
   92.74050        1.4840442E-17
   92.90200        1.4836340E-17
   93.06350        1.4832900E-17
   93.22500        1.4835196E-17
   93.38650        1.4843129E-17
   93.54800        1.4851571E-17
   93.70950        1.4853964E-17
   93.87100        1.4846901E-17
   94.03250        1.4832659E-17
   94.19400        1.4817943E-17
   94.35550        1.4809689E-17
   94.51700        1.4810632E-17
   94.67850        1.4817634E-17
   94.84000        1.4823877E-17
   95.00150        1.4823528E-17
   95.16300        1.4815748E-17
   95.32450        1.4805367E-17
   95.48600        1.4799697E-17
   95.64750        1.4803572E-17
   95.80900        1.4815940E-17
   95.97050        1.4830404E-17
   96.13200        1.4839364E-17
   96.29350        1.4839097E-17
   96.45500        1.4832258E-17
   96.61650        1.4826101E-17
   96.77800        1.4827560E-17
   96.93950        1.4838482E-17
   97.10100        1.4854235E-17
   97.26250        1.4866656E-17
   97.42400        1.4869384E-17
   97.58550        1.4862029E-17
   97.74700        1.4850450E-17
   97.90850        1.4842964E-17
   98.07000        1.4845028E-17
   98.23150        1.4855873E-17
   98.39300        1.4869218E-17
   98.55450        1.4877545E-17
   98.71600        1.4877100E-17
   98.87750        1.4870405E-17
   99.03900        1.4864700E-17
   99.20050        1.4867308E-17
   99.36200        1.4880911E-17
   99.52350        1.4901727E-17
   99.68500        1.4921705E-17
   99.84650        1.4933444E-17
   100.0080        1.4934691E-17
   100.1695        1.4929624E-17
   100.3310        1.4926056E-17
   100.4925        1.4930364E-17
   100.6540        1.4943350E-17
   100.8155        1.4959727E-17
   100.9770        1.4971579E-17
   101.1385        1.4973585E-17
   101.3000        1.4966553E-17
   101.4615        1.4956928E-17
   101.6230        1.4952595E-17
   101.7845        1.4957692E-17
   101.9460        1.4969909E-17
   102.1075        1.4982009E-17
   102.2690        1.4986561E-17
   102.4305        1.4980683E-17
   102.5920        1.4967742E-17
   102.7535        1.4954952E-17
   102.9150        1.4948636E-17
   103.0765        1.4950297E-17
   103.2380        1.4956043E-17
   103.3995        1.4959542E-17
   103.5610        1.4956421E-17
   103.7225        1.4947178E-17
   103.8840        1.4936797E-17
   104.0455        1.4931469E-17
   104.2070        1.4934637E-17
   104.3685        1.4944919E-17
   104.5300        1.4957090E-17
   104.6915        1.4965419E-17
   104.8530        1.4967163E-17
   105.0145        1.4964048E-17
   105.1760        1.4960888E-17
   105.3375        1.4962298E-17
   105.4990        1.4969643E-17
   105.6605        1.4980198E-17
   105.8220        1.4989032E-17
   105.9835        1.4992377E-17
   106.1450        1.4990242E-17
   106.3065        1.4986483E-17
   106.4680        1.4986274E-17
   106.6295        1.4992620E-17
   106.7910        1.5004328E-17
   106.9525        1.5016822E-17
   107.1140        1.5025289E-17
   107.2755        1.5027964E-17
   107.4370        1.5027281E-17
   107.5985        1.5028065E-17
   107.7600        1.5034072E-17
   107.9215        1.5045328E-17
   108.0830        1.5058127E-17
   108.2445        1.5067674E-17
   108.4060        1.5071444E-17
   108.5675        1.5070888E-17
   108.7290        1.5070319E-17
   108.8905        1.5073841E-17
   109.0520        1.5082492E-17
   109.2135        1.5093580E-17
   109.3750        1.5102599E-17
   109.5365        1.5106290E-17
   109.6980        1.5104758E-17
   109.8595        1.5101238E-17
   110.0210        1.5099807E-17
   110.1825        1.5102640E-17
   110.3440        1.5108681E-17
   110.5055        1.5114519E-17
   110.6670        1.5116828E-17
   110.8285        1.5114702E-17
   110.9900        1.5110315E-17
   111.1515        1.5107526E-17
   111.3130        1.5109319E-17
   111.4745        1.5115788E-17
   111.6360        1.5124003E-17
   111.7975        1.5129893E-17
   111.9590        1.5130907E-17
   112.1205        1.5127669E-17
   112.2820        1.5123474E-17
   112.4435        1.5121904E-17
   112.6050        1.5124187E-17
   112.7665        1.5128189E-17
   112.9280        1.5129803E-17
   113.0895        1.5125927E-17
   113.2510        1.5116868E-17
   113.4125        1.5106449E-17
   113.5740        1.5099583E-17
   113.7355        1.5098936E-17
   113.8970        1.5103069E-17
   114.0585        1.5107420E-17
   114.2200        1.5107539E-17
   114.3815        1.5102285E-17
   114.5430        1.5094721E-17
   114.7045        1.5089980E-17
   114.8660        1.5091626E-17
   115.0275        1.5099039E-17
   115.1890        1.5107744E-17
   115.3505        1.5112469E-17
   115.5120        1.5110806E-17
   115.6735        1.5104953E-17
   115.8350        1.5100290E-17
   115.9965        1.5101823E-17
   116.1580        1.5110861E-17
   116.3195        1.5124203E-17
   116.4810        1.5136285E-17
   116.6425        1.5142822E-17
   116.8040        1.5143510E-17
   116.9655        1.5142018E-17
   117.1270        1.5143361E-17
   117.2885        1.5150440E-17
   117.4500        1.5162047E-17
   117.6115        1.5173637E-17
   117.7730        1.5180329E-17
   117.9345        1.5180170E-17
   118.0960        1.5175508E-17
   118.2575        1.5171558E-17
   118.4190        1.5173098E-17
   118.5805        1.5181454E-17
   118.7420        1.5193758E-17