  -27.90000       -2.0095726E-18
  -27.73850       -2.0120782E-18
  -27.57700       -2.0158687E-18
  -27.41550       -2.0192577E-18
  -27.25400       -2.0210475E-18
  -27.09250       -2.0211908E-18
  -26.93100       -2.0207547E-18
  -26.76950       -2.0212355E-18
  -26.60800       -2.0236159E-18
  -26.44650       -2.0277427E-18
  -26.28500       -2.0323883E-18
  -26.12350       -2.0359597E-18
  -25.96200       -2.0374362E-18
  -25.80050       -2.0369699E-18
  -25.63900       -2.0357994E-18
  -25.47750       -2.0355261E-18
  -25.31600       -2.0371773E-18
  -25.15450       -2.0406246E-18
  -24.99300       -2.0446776E-18
  -24.83150       -2.0478062E-18
  -24.67000       -2.0490453E-18
  -24.50850       -2.0485537E-18
  -24.34700       -2.0474995E-18
  -24.18550       -2.0473593E-18
  -24.02400       -2.0490387E-18
  -23.86250       -2.0523459E-18
  -23.70100       -2.0561137E-18
  -23.53950       -2.0588956E-18
  -23.37800       -2.0598222E-18
  -23.21650       -2.0591098E-18
  -23.05500       -2.0579271E-18
  -22.89350       -2.0577011E-18
  -22.73200       -2.0592723E-18
  -22.57050       -2.0623985E-18
  -22.40900       -2.0658991E-18
  -22.24750       -2.0683535E-18
  -22.08600       -2.0689429E-18
  -21.92450       -2.0679352E-18
  -21.76300       -2.0665275E-18
  -21.60150       -2.0661328E-18
  -21.44000       -2.0675435E-18
  -21.27850       -2.0704705E-18
  -21.11700       -2.0737315E-18
  -20.95550       -2.0759696E-18
  -20.79400       -2.0764715E-18
  -20.63250       -2.0755945E-18
  -20.47100       -2.0745464E-18
  -20.30950       -2.0746562E-18
  -20.14800       -2.0765734E-18
  -19.98650       -2.0798768E-18
  -19.82500       -2.0833185E-18
  -19.66350       -2.0855601E-18
  -19.50200       -2.0859491E-18
  -19.34050       -2.0848963E-18
  -19.17900       -2.0836192E-18
  -19.01750       -2.0834188E-18
  -18.85600       -2.0849195E-18
  -18.69450       -2.0877118E-18
  -18.53300       -2.0906152E-18
  -18.37150       -2.0923951E-18
  -18.21000       -2.0925107E-18
  -18.04850       -2.0914513E-18
  -17.88700       -2.0904515E-18
  -17.72550       -2.0907534E-18
  -17.56400       -2.0928441E-18
  -17.40250       -2.0961249E-18
  -17.24100       -2.0992297E-18
  -17.07950       -2.1008121E-18
  -16.91800       -2.1003431E-18
  -16.75650       -2.0984412E-18
  -16.59500       -2.0965267E-18
  -16.43350       -2.0959888E-18
  -16.27200       -2.0973655E-18
  -16.11050       -2.1000331E-18
  -15.94900       -2.1026087E-18
  -15.78750       -2.1038272E-18
  -15.62600       -2.1033598E-18
  -15.46450       -2.1020585E-18
  -15.30300       -2.1014619E-18
  -15.14150       -2.1028488E-18
  -14.98000       -2.1064194E-18
  -14.81850       -2.1111235E-18
  -14.65700       -2.1152472E-18
  -14.49550       -2.1174142E-18
  -14.33400       -2.1173958E-18
  -14.17250       -2.1162293E-18
  -14.01100       -2.1155725E-18
  -13.84950       -2.1166857E-18
  -13.68800       -2.1196478E-18
  -13.52650       -2.1232961E-18
  -13.36500       -2.1259201E-18
  -13.20350       -2.1263021E-18
  -13.04200       -2.1244746E-18
  -12.88050       -2.1217408E-18
  -12.71900       -2.1199338E-18
  -12.55750       -2.1203466E-18
  -12.39600       -2.1229586E-18
  -12.23450       -2.1264268E-18
  -12.07300       -2.1288604E-18
  -11.91150       -2.1289373E-18
  -11.75000       -2.1267130E-18
  -11.58850       -2.1236212E-18
  -11.42700       -2.1216538E-18
  -11.26550       -2.1221815E-18
  -11.10400       -2.1251174E-18
  -10.94250       -2.1289373E-18
  -10.78100       -2.1315677E-18
  -10.61950       -2.1316341E-18
  -10.45800       -2.1293141E-18
  -10.29650       -2.1262676E-18
  -10.13500       -2.1246587E-18
  -9.973500       -2.1258492E-18
  -9.812000       -2.1295568E-18
  -9.650500       -2.1340036E-18
  -9.489000       -2.1369744E-18
  -9.327500       -2.1371491E-18
  -9.166000       -2.1349068E-18
  -9.004500       -2.1321157E-18
  -8.843000       -2.1310319E-18
  -8.681500       -2.1329741E-18
  -8.520000       -2.1375710E-18
  -8.358500       -2.1430068E-18
  -8.197000       -2.1471102E-18
  -8.035500       -2.1486149E-18
  -7.874000       -2.1478580E-18
  -7.712500       -2.1465153E-18
  -7.551000       -2.1465655E-18
  -7.389500       -2.1490922E-18
  -7.228000       -2.1536319E-18
  -7.066500       -2.1584412E-18
  -6.905000       -2.1615146E-18
  -6.743500       -2.1617598E-18
  -6.582000       -2.1596402E-18
  -6.420500       -2.1569055E-18
  -6.259000       -2.1555717E-18
  -6.097500       -2.1567428E-18
  -5.936000       -2.1599768E-18
  -5.774500       -2.1635746E-18
  -5.613000       -2.1656205E-18
  -5.451500       -2.1651508E-18
  -5.290000       -2.1627365E-18
  -5.128500       -2.1601139E-18
  -4.967000       -2.1591013E-18
  -4.805500       -2.1604696E-18
  -4.644000       -2.1634762E-18
  -4.482500       -2.1663465E-18
  -4.321000       -2.1673919E-18
  -4.159500       -2.1660529E-18
  -3.998000       -2.1632206E-18
  -3.836500       -2.1606545E-18
  -3.675000       -2.1598780E-18
  -3.513500       -2.1612602E-18
  -3.352000       -2.1638391E-18
  -3.190500       -2.1659685E-18
  -3.029000       -2.1663569E-18
  -2.867500       -2.1648454E-18
  -2.706000       -2.1624666E-18
  -2.544500       -2.1607775E-18
  -2.383000       -2.1608960E-18
  -2.221500       -2.1628310E-18
  -2.060000       -2.1654809E-18
  -1.898500       -2.1672974E-18
  -1.737000       -2.1672060E-18
  -1.575500       -2.1652458E-18
  -1.414000       -2.1625508E-18
  -1.252500       -2.1607006E-18
  -1.091000       -2.1608079E-18
 -0.9295000       -2.1628753E-18
 -0.7680000       -2.1657989E-18
 -0.6065000       -2.1680255E-18
 -0.4450000       -2.1684829E-18
 -0.2835000       -2.1672386E-18
 -0.1220000       -2.1654784E-18
  3.9500002E-02   -2.1648109E-18
  0.2010000       -2.1663012E-18
  0.3625000       -2.1698197E-18
  0.5240000       -2.1741047E-18
  0.6855000       -2.1775093E-18
  0.8470000       -2.1789774E-18
   1.008500       -2.1786726E-18
   1.170000       -2.1778770E-18
   1.331500       -2.1782304E-18
   1.493000       -2.1807643E-18
   1.654500       -2.1853088E-18
   1.816000       -2.1905920E-18
   1.977500       -2.1949614E-18
   2.139000       -2.1972843E-18
   2.300500       -2.1975302E-18
   2.462000       -2.1967247E-18
   2.623500       -2.1963457E-18
   2.785000       -2.1974961E-18
   2.946500       -2.2003145E-18
   3.108000       -2.2039098E-18
   3.269500       -2.2068457E-18
   3.431000       -2.2079068E-18
   3.592500       -2.2067535E-18
   3.754000       -2.2041257E-18
   3.915500       -2.2014889E-18
   4.077000       -2.2002899E-18
   4.238500       -2.2012004E-18
   4.400000       -2.2037392E-18
   4.561500       -2.2065076E-18
   4.723000       -2.2079357E-18
   4.884500       -2.2071602E-18
   5.046000       -2.2045439E-18
   5.207500       -2.2015211E-18
   5.369000       -2.1998219E-18
   5.530500       -2.2004824E-18
   5.692000       -2.2032144E-18
   5.853500       -2.2065142E-18
   6.015000       -2.2084908E-18
   6.176500       -2.2079550E-18
   6.338000       -2.2051458E-18
   6.499500       -2.2016444E-18
   6.661000       -2.1994964E-18
   6.822500       -2.2000343E-18
   6.984000       -2.2030754E-18
   7.145500       -2.2069770E-18
   7.307000       -2.2095332E-18
   7.468500       -2.2092234E-18
   7.630000       -2.2060992E-18
   7.791500       -2.2017858E-18
   7.953000       -2.1985811E-18
   8.114500       -2.1981322E-18
   8.276000       -2.2004737E-18
   8.437500       -2.2039758E-18
   8.599000       -2.2062934E-18
   8.760500       -2.2057726E-18
   8.922000       -2.2025016E-18
   9.083500       -2.1983543E-18
   9.245000       -2.1959383E-18
   9.406500       -2.1970322E-18
   9.568000       -2.2014386E-18
   9.729500       -2.2069911E-18
   9.891000       -2.2107833E-18
   10.05250       -2.2109202E-18
   10.21400       -2.2077287E-18
   10.37550       -2.2036433E-18
   10.53700       -2.2017736E-18
   10.69850       -2.2039963E-18
   10.86000       -2.2097485E-18
   11.02150       -2.2163072E-18
   11.18300       -2.2204363E-18
   11.34450       -2.2204059E-18
   11.50600       -2.2171242E-18
   11.66750       -2.2136383E-18
   11.82900       -2.2132758E-18
   11.99050       -2.2175536E-18
   12.15200       -2.2251597E-18
   12.31350       -2.2326612E-18
   12.47500       -2.2365460E-18
   12.63650       -2.2353584E-18
   12.79800       -2.2306290E-18
   12.95950       -2.2259980E-18
   13.12100       -2.2250265E-18
   13.28250       -2.2290143E-18
   13.44400       -2.2361566E-18
   13.60550       -2.2425818E-18
   13.76700       -2.2446905E-18
   13.92850       -2.2414018E-18
   14.09000       -2.2349256E-18
   14.25150       -2.2295330E-18
   14.41300       -2.2290073E-18
   14.57450       -2.2342845E-18
   14.73600       -2.2427472E-18
   14.89750       -2.2496833E-18
   15.05900       -2.2510999E-18
   15.22050       -2.2462071E-18
   15.38200       -2.2380132E-18
   15.54350       -2.2315856E-18
   15.70500       -2.2309679E-18
   15.86650       -2.2366379E-18
   16.02800       -2.2451103E-18
   16.18950       -2.2510161E-18
   16.35100       -2.2504303E-18
   16.51250       -2.2433910E-18
   16.67400       -2.2339940E-18
   16.83550       -2.2279427E-18
   16.99700       -2.2290222E-18
   17.15850       -2.2366962E-18
   17.32000       -2.2463438E-18
   17.48150       -2.2520503E-18
   17.64300       -2.2502518E-18
   17.80450       -2.2419850E-18
   17.96600       -2.2323353E-18
   18.12750       -2.2273755E-18
   18.28900       -2.2304522E-18
   18.45050       -2.2400922E-18
   18.61200       -2.2508259E-18
   18.77350       -2.2564714E-18
   18.93500       -2.2538920E-18
   19.09650       -2.2449535E-18
   19.25800       -2.2354496E-18
   19.41950       -2.2316134E-18
   19.58100       -2.2362801E-18
   19.74250       -2.2470527E-18
   19.90400       -2.2576329E-18
   20.06550       -2.2615972E-18
   20.22700       -2.2563657E-18
   20.38850       -2.2449219E-18
   20.55000       -2.2341726E-18
   20.71150       -2.2308364E-18
   20.87300       -2.2373294E-18
   21.03450       -2.2501852E-18
   21.19600       -2.2620519E-18
   21.35750       -2.2661531E-18
   21.51900       -2.2604863E-18
   21.68050       -2.2491612E-18
   21.84200       -2.2399619E-18
   22.00350       -2.2395576E-18
   22.16500       -2.2492954E-18
   22.32650       -2.2642034E-18
   22.48800       -2.2758938E-18
   22.64950       -2.2776426E-18
   22.81100       -2.2685414E-18
   22.97250       -2.2541472E-18
   23.13400       -2.2431856E-18
   23.29550       -2.2422900E-18
   23.45700       -2.2519752E-18
   23.61850       -2.2663198E-18
   23.78000       -2.2765661E-18
   23.94150       -2.2764585E-18
   24.10300       -2.2660985E-18
   24.26450       -2.2519471E-18
   24.42600       -2.2429697E-18
   24.58750       -2.2452126E-18
   24.74900       -2.2580916E-18
   24.91050       -2.2746545E-18
   25.07200       -2.2856950E-18
   25.23350       -2.2852860E-18
   25.39500       -2.2743951E-18
   25.55650       -2.2603684E-18
   25.71800       -2.2525311E-18
   25.87950       -2.2565235E-18
   26.04100       -2.2708027E-18
   26.20250       -2.2874840E-18
   26.36400       -2.2970746E-18
   26.52550       -2.2942580E-18
   26.68700       -2.2811906E-18
   26.84850       -2.2662489E-18
   27.01000       -2.2589192E-18
   27.17150       -2.2639588E-18
   27.33300       -2.2784181E-18
   27.49450       -2.2934075E-18
   27.65600       -2.2995524E-18
   27.81750       -2.2927896E-18
   27.97900       -2.2769143E-18
   28.14050       -2.2612837E-18
   28.30200       -2.2550906E-18
   28.46350       -2.2617159E-18
   28.62500       -2.2766569E-18
   28.78650       -2.2903078E-18
   28.94800       -2.2938825E-18
   29.10950       -2.2848370E-18
   29.27100       -2.2684520E-18
   29.43250       -2.2546199E-18
   29.59400       -2.2517854E-18
   29.75550       -2.2617618E-18
   29.91700       -2.2785945E-18
   30.07850       -2.2921863E-18
   30.24000       -2.2944950E-18
   30.40150       -2.2845300E-18
   30.56300       -2.2690480E-18
   30.72450       -2.2584845E-18
   30.88600       -2.2605397E-18
   31.04750       -2.2753433E-18
   31.20900       -2.2952175E-18
   31.37050       -2.3092573E-18
   31.53200       -2.3099991E-18
   31.69350       -2.2980744E-18
   31.85500       -2.2819159E-18
   32.01650       -2.2725851E-18
   32.17800       -2.2768639E-18
   32.33950       -2.2929016E-18
   32.50100       -2.3112107E-18
   32.66250       -2.3204923E-18
   32.82400       -2.3147285E-18
   32.98550       -2.2970903E-18
   33.14700       -2.2781582E-18
   33.30850       -2.2694773E-18
   33.47000       -2.2764072E-18
   33.63150       -2.2947436E-18
   33.79300       -2.3132559E-18
   33.95450       -2.3206149E-18
   34.11600       -2.3124219E-18
   34.27750       -2.2939668E-18
   34.43900       -2.2769861E-18
   34.60050       -2.2724002E-18
   34.76200       -2.2835227E-18
   34.92350       -2.3039174E-18
   35.08500       -2.3212655E-18
   35.24650       -2.3248864E-18
   35.40800       -2.3123290E-18
   35.56950       -2.2909747E-18
   35.73100       -2.2736364E-18
   35.89250       -2.2707895E-18
   36.05400       -2.2841614E-18
   36.21550       -2.3056133E-18
   36.37700       -2.3220608E-18
   36.53850       -2.3234807E-18
   36.70000       -2.3091315E-18
   36.86150       -2.2881290E-18
   37.02300       -2.2739334E-18
   37.18450       -2.2760627E-18
   37.34600       -2.2941352E-18
   37.50750       -2.3179663E-18
   37.66900       -2.3337569E-18
   37.83050       -2.3325923E-18
   37.99200       -2.3159947E-18
   38.15350       -2.2950362E-18
   38.31500       -2.2834970E-18
   38.47650       -2.2893065E-18
   38.63800       -2.3095700E-18
   38.79950       -2.3323096E-18
   38.96100       -2.3438539E-18
   39.12250       -2.3372809E-18
   39.28400       -2.3166707E-18
   39.44550       -2.2945572E-18
   39.60700       -2.2841813E-18
   39.76850       -2.2913627E-18
   39.93000       -2.3110004E-18
   40.09150       -2.3303123E-18
   40.25300       -2.3367639E-18
   40.41450       -2.3257951E-18
   40.57600       -2.3035990E-18
   40.73750       -2.2832941E-18
   40.89900       -2.2768816E-18
   41.06050       -2.2879144E-18
   41.22200       -2.3093708E-18
   41.38350       -2.3279964E-18
   41.54500       -2.3324454E-18
   41.70650       -2.3202408E-18
   41.86800       -2.2992800E-18
   42.02950       -2.2829728E-18
   42.19100       -2.2819806E-18
   42.35250       -2.2976461E-18
   42.51400       -2.3211739E-18
   42.67550       -2.3390788E-18
   42.83700       -2.3415386E-18
   42.99850       -2.3284677E-18
   43.16000       -2.3095323E-18
   43.32150       -2.2980974E-18
   43.48300       -2.3028799E-18
   43.64450       -2.3225108E-18
   43.80600       -2.3463942E-18
   43.96750       -2.3612907E-18
   44.12900       -2.3595035E-18
   44.29050       -2.3435385E-18
   44.45200       -2.3244036E-18
   44.61350       -2.3146598E-18
   44.77500       -2.3206089E-18
   44.93650       -2.3384735E-18
   45.09800       -2.3568530E-18
   45.25950       -2.3638760E-18
   45.42100       -2.3545595E-18
   45.58250       -2.3338659E-18
   45.74400       -2.3136219E-18
   45.90550       -2.3052651E-18
   46.06700       -2.3128921E-18
   46.22850       -2.3308413E-18
   46.39000       -2.3472507E-18
   46.55150       -2.3513823E-18
   46.71300       -2.3402220E-18
   46.87450       -2.3203322E-18
   47.03600       -2.3038148E-18
   47.19750       -2.3008482E-18
   47.35900       -2.3133657E-18
   47.52050       -2.3337919E-18
   47.68200       -2.3496529E-18
   47.84350       -2.3512683E-18
   48.00500       -2.3377853E-18
   48.16650       -2.3177818E-18
   48.32800       -2.3040121E-18
   48.48950       -2.3055093E-18
   48.65100       -2.3219384E-18
   48.81250       -2.3437464E-18
   48.97400       -2.3580603E-18
   49.13550       -2.3566731E-18
   49.29700       -2.3411486E-18
   49.45850       -2.3218455E-18
   49.62000       -2.3114764E-18
   49.78150       -2.3172048E-18
   49.94300       -2.3362010E-18
   50.10450       -2.3573878E-18
   50.26600       -2.3682820E-18
   50.42750       -2.3626820E-18
   50.58900       -2.3444749E-18
   50.75050       -2.3252436E-18
   50.91200       -2.3171666E-18
   51.07350       -2.3255778E-18
   51.23500       -2.3457140E-18
   51.39650       -2.3656189E-18
   51.55800       -2.3734124E-18
   51.71950       -2.3645183E-18
   51.88100       -2.3444528E-18
   52.04250       -2.3254843E-18
   52.20400       -2.3191681E-18
   52.36550       -2.3292887E-18
   52.52700       -2.3495215E-18
   52.68850       -2.3672867E-18
   52.85000       -2.3714836E-18
   53.01150       -2.3593728E-18
   53.17300       -2.3383525E-18
   53.33450       -2.3214658E-18
   53.49600       -2.3193565E-18
   53.65750       -2.3336362E-18
   53.81900       -2.3558127E-18
   53.98050       -2.3724961E-18
   54.14200       -2.3736851E-18
   54.30350       -2.3589615E-18
   54.46500       -2.3377288E-18
   54.62650       -2.3233361E-18
   54.78800       -2.3247820E-18
   54.94950       -2.3411759E-18
   55.11100       -2.3623991E-18
   55.27250       -2.3754931E-18
   55.43400       -2.3727496E-18
   55.59550       -2.3564500E-18
   55.75700       -2.3373446E-18
   55.91850       -2.3278792E-18
   56.08000       -2.3344302E-18
   56.24150       -2.3533640E-18
   56.40300       -2.3733228E-18
   56.56450       -2.3822713E-18
   56.72600       -2.3749348E-18
   56.88750       -2.3560325E-18
   57.04900       -2.3373359E-18
   57.21050       -2.3303711E-18
   57.37200       -2.3392786E-18
   57.53350       -2.3582669E-18
   57.69500       -2.3752570E-18
   57.85650       -2.3794787E-18
   58.01800       -2.3682851E-18
   58.17950       -2.3488784E-18
   58.34100       -2.3338173E-18
   58.50250       -2.3330762E-18
   58.66400       -2.3476643E-18
   58.82550       -2.3688836E-18
   58.98700       -2.3837716E-18
   59.14850       -2.3833119E-18
   59.31000       -2.3681947E-18
   59.47150       -2.3484079E-18
   59.63300       -2.3368872E-18
   59.79450       -2.3412741E-18
   59.95600       -2.3590515E-18
   60.11750       -2.3791592E-18
   60.27900       -2.3890620E-18
   60.44050       -2.3827442E-18
   60.60200       -2.3645251E-18
   60.76350       -2.3462879E-18
   60.92500       -2.3399072E-18
   61.08650       -2.3497097E-18
   61.24800       -2.3697351E-18
   61.40950       -2.3875106E-18
   61.57100       -2.3919292E-18
   61.73250       -2.3802519E-18
   61.89400       -2.3598431E-18
   62.05550       -2.3435607E-18
   62.21700       -2.3417016E-18
   62.37850       -2.3555473E-18
   62.54000       -2.3765550E-18
   62.70150       -2.3917129E-18
   62.86300       -2.3917175E-18
   63.02450       -2.3768359E-18
   63.18600       -2.3567594E-18
   63.34750       -2.3444987E-18
   63.50900       -2.3481538E-18
   63.67050       -2.3657448E-18
   63.83200       -2.3864119E-18
   63.99350       -2.3972610E-18
   64.15500       -2.3915537E-18
   64.31650       -2.3730364E-18
   64.47800       -2.3536210E-18
   64.63950       -2.3458716E-18
   64.80100       -2.3550636E-18
   64.96250       -2.3758778E-18
   65.12400       -2.3958141E-18
   65.28550       -2.4031272E-18
   65.44700       -2.3942122E-18
   65.60850       -2.3757543E-18
   65.77000       -2.3603243E-18
   65.93150       -2.3583070E-18
   66.09300       -2.3713093E-18
   66.25450       -2.3912164E-18
   66.41600       -2.4054088E-18
   66.57750       -2.4047462E-18
   66.73900       -2.3892547E-18
   66.90050       -2.3679807E-18
   67.06200       -2.3532383E-18
   67.22350       -2.3529428E-18
   67.38500       -2.3658594E-18
   67.54650       -2.3826441E-18
   67.70800       -2.3919090E-18
   67.86950       -2.3874186E-18
   68.03100       -2.3719104E-18
   68.19250       -2.3552245E-18
   68.35400       -2.3480157E-18
   68.51550       -2.3550628E-18
   68.67700       -2.3723616E-18
   68.83850       -2.3897517E-18
   69.00000       -2.3973499E-18
   69.16150       -2.3916984E-18
   69.32300       -2.3777778E-18
   69.48450       -2.3656877E-18
   69.64600       -2.3641622E-18
   69.80750       -2.3750796E-18
   69.96900       -2.3924026E-18
   70.13050       -2.4061375E-18
   70.29200       -2.4086968E-18
   70.45350       -2.3995763E-18
   70.61500       -2.3854288E-18
   70.77650       -2.3756181E-18
   70.93800       -2.3761965E-18
   71.09950       -2.3861876E-18
   71.26100       -2.3984569E-18
   71.42250       -2.4044728E-18
   71.58400       -2.3998069E-18
   71.74550       -2.3868634E-18
   71.90700       -2.3732081E-18
   72.06850       -2.3667172E-18
   72.23000       -2.3707073E-18
   72.39150       -2.3820928E-18
   72.55300       -2.3935735E-18
   72.71450       -2.3983297E-18
   72.87600       -2.3941961E-18
   73.03750       -2.3847698E-18
   73.19900       -2.3768975E-18
   73.36050       -2.3762469E-18
   73.52200       -2.3837825E-18
   73.68350       -2.3952799E-18
   73.84500       -2.4040758E-18
   74.00650       -2.4052555E-18
   74.16800       -2.3986585E-18
   74.32950       -2.3888931E-18
   74.49100       -2.3824247E-18
   74.65250       -2.3835848E-18
   74.81400       -2.3919675E-18
   74.97550       -2.4027814E-18
   75.13700       -2.4098772E-18
   75.29850       -2.4095174E-18
   75.46000       -2.4025624E-18
   75.62150       -2.3937647E-18
   75.78300       -2.3886916E-18
   75.94450       -2.3902534E-18
   76.10600       -2.3969719E-18
   76.26750       -2.4040141E-18
   76.42900       -2.4062572E-18
   76.59050       -2.4014521E-18
   76.75200       -2.3915593E-18
   76.91350       -2.3815202E-18
   77.07500       -2.3763079E-18
   77.23650       -2.3780708E-18
   77.39800       -2.3850398E-18
   77.55950       -2.3927227E-18
   77.72100       -2.3965894E-18
   77.88250       -2.3946409E-18
   78.04400       -2.3884410E-18
   78.20550       -2.3820887E-18
   78.36700       -2.3798005E-18
   78.52850       -2.3834783E-18
   78.69000       -2.3916070E-18
   78.85150       -2.4000863E-18
   79.01300       -2.4045266E-18
   79.17450       -2.4027506E-18
   79.33600       -2.3960974E-18
   79.49750       -2.3887593E-18
   79.65900       -2.3854555E-18
   79.82050       -2.3887235E-18
   79.98200       -2.3973710E-18
   80.14350       -2.4070716E-18
   80.30500       -2.4128313E-18
   80.46650       -2.4119499E-18
   80.62800       -2.4057181E-18
   80.78950       -2.3987748E-18
   80.95100       -2.3964128E-18
   81.11250       -2.4013853E-18
   81.27400       -2.4121377E-18
   81.43550       -2.4235927E-18
   81.59700       -2.4301032E-18
   81.75850       -2.4288492E-18
   81.92000       -2.4216159E-18
   82.08150       -2.4138084E-18
   82.24300       -2.4112025E-18
   82.40450       -2.4163629E-18
   82.56600       -2.4269088E-18
   82.72750       -2.4367661E-18
   82.88900       -2.4397500E-18
   83.05050       -2.4333422E-18
   83.21200       -2.4203520E-18
   83.37350       -2.4073425E-18
   83.53500       -2.4006990E-18
   83.69650       -2.4027037E-18
   83.85800       -2.4100937E-18
   84.01950       -2.4160831E-18
   84.18100       -2.4146924E-18
   84.34250       -2.4046939E-18
   84.50400       -2.3906345E-18
   84.66550       -2.3801789E-18
   84.82700       -2.3793337E-18
   84.98850       -2.3885605E-18
   85.15000       -2.4022919E-18
   85.31150       -2.4122886E-18
   85.47300       -2.4127816E-18
   85.63450       -2.4041403E-18
   85.79600       -2.3926689E-18
   85.95750       -2.3865683E-18
   86.11900       -2.3906140E-18
   86.28050       -2.4029754E-18
   86.44200       -2.4162868E-18
   86.60350       -2.4223662E-18
   86.76500       -2.4175774E-18
   86.92650       -2.4053455E-18
   87.08800       -2.3941086E-18
   87.24950       -2.3919348E-18
   87.41100       -2.4012354E-18
   87.57250       -2.4170373E-18
   87.73400       -2.4300345E-18
   87.89550       -2.4325328E-18
   88.05700       -2.4234663E-18
   88.21850       -2.4091943E-18
   88.38000       -2.3994657E-18
   88.54150       -2.4010923E-18
   88.70300       -2.4134291E-18
   88.86450       -2.4286616E-18
   89.02600       -2.4368242E-18
   89.18750       -2.4323527E-18
   89.34900       -2.4178917E-18
   89.51050       -2.4027909E-18
   89.67200       -2.3971587E-18
   89.83350       -2.4052706E-18
   89.99500       -2.4226373E-18
   90.15650       -2.4387133E-18
   90.31800       -2.4435984E-18
   90.47950       -2.4344385E-18
   90.64100       -2.4173652E-18
   90.80250       -2.4036417E-18
   90.96400       -2.4024202E-18
   91.12550       -2.4147689E-18
   91.28700       -2.4328738E-18
   91.44850       -2.4449987E-18
   91.61000       -2.4430682E-18
   91.77150       -2.4279798E-18
   91.93300       -2.4091685E-18
   92.09450       -2.3986226E-18
   92.25600       -2.4031574E-18
   92.41750       -2.4199196E-18
   92.57900       -2.4381010E-18
   92.74050       -2.4458151E-18
   92.90200       -2.4377585E-18
   93.06350       -2.4186906E-18
   93.22500       -2.4004391E-18
   93.38650       -2.3943444E-18
   93.54800       -2.4039955E-18
   93.70950       -2.4229696E-18
   93.87100       -2.4390227E-18
   94.03250       -2.4420307E-18
   94.19400       -2.4305267E-18
   94.35550       -2.4126069E-18
   94.51700       -2.4006243E-18
   94.67850       -2.4031348E-18
   94.84000       -2.4193215E-18
   95.00150       -2.4395008E-18
   95.16300       -2.4513386E-18
   95.32450       -2.4477443E-18
   95.48600       -2.4313400E-18
   95.64750       -2.4126906E-18
   95.80900       -2.4034779E-18
   95.97050       -2.4090490E-18
   96.13200       -2.4251283E-18
   96.29350       -2.4407579E-18
   96.45500       -2.4455061E-18
   96.61650       -2.4362518E-18
   96.77800       -2.4191720E-18
   96.93950       -2.4056809E-18
   97.10100       -2.4050049E-18
   97.26250       -2.4181982E-18
   97.42400       -2.4374585E-18
   97.58550       -2.4511597E-18
   97.74700       -2.4513113E-18
   97.90850       -2.4386244E-18
   98.07000       -2.4219089E-18
   98.23150       -2.4122373E-18
   98.39300       -2.4157311E-18
   98.55450       -2.4296623E-18
   98.71600       -2.4443874E-18
   98.87750       -2.4497684E-18
   99.03900       -2.4418390E-18
   99.20050       -2.4253703E-18
   99.36200       -2.4107042E-18
   99.52350       -2.4069916E-18
   99.68500       -2.4162860E-18
   99.84650       -2.4323345E-18
   100.0080       -2.4447751E-18
   100.1695       -2.4459179E-18
   100.3310       -2.4356550E-18
   100.4925       -2.4213514E-18
   100.6540       -2.4129034E-18
   100.8155       -2.4162775E-18
   100.9770       -2.4297326E-18
   101.1385       -2.4451054E-18
   101.3000       -2.4532078E-18
   101.4615       -2.4497605E-18
   101.6230       -2.4380301E-18
   101.7845       -2.4265219E-18
   101.9460       -2.4233402E-18
   102.1075       -2.4309256E-18
   102.2690       -2.4445627E-18
   102.4305       -2.4555365E-18
   102.5920       -2.4568062E-18
   102.7535       -2.4474982E-18
   102.9150       -2.4333524E-18
   103.0765       -2.4229133E-18
   103.2380       -2.4219983E-18
   103.3995       -2.4300445E-18
   103.5610       -2.4406591E-18
   103.7225       -2.4459311E-18
   103.8840       -2.4416269E-18
   104.0455       -2.4298786E-18
   104.2070       -2.4176889E-18
   104.3685       -2.4123139E-18
   104.5300       -2.4165887E-18
   104.6915       -2.4272023E-18
   104.8530       -2.4369682E-18
   105.0145       -2.4395277E-18
   105.1760       -2.4333993E-18
   105.3375       -2.4227810E-18
   105.4990       -2.4147046E-18
   105.6605       -2.4144775E-18
   105.8220       -2.4224026E-18
   105.9835       -2.4337980E-18
   106.1450       -2.4421809E-18
   106.3065       -2.4434338E-18
   106.4680       -2.4382929E-18
   106.6295       -2.4316370E-18
   106.7910       -2.4291712E-18
   106.9525       -2.4337213E-18
   107.1140       -2.4434940E-18
   107.2755       -2.4533408E-18
   107.4370       -2.4580671E-18
   107.5985       -2.4556180E-18
   107.7600       -2.4481546E-18
   107.9215       -2.4404853E-18
   108.0830       -2.4369946E-18
   108.2445       -2.4390684E-18
   108.4060       -2.4445646E-18
   108.5675       -2.4495095E-18
   108.7290       -2.4507798E-18
   108.8905       -2.4480220E-18
   109.0520       -2.4436615E-18
   109.2135       -2.4411537E-18
   109.3750       -2.4427268E-18
   109.5365       -2.4480582E-18
   109.6980       -2.4546124E-18
   109.8595       -2.4592752E-18
   110.0210       -2.4601700E-18
   110.1825       -2.4575567E-18
   110.3440       -2.4533774E-18
   110.5055       -2.4498741E-18
   110.6670       -2.4482338E-18
   110.8285       -2.4480853E-18
   110.9900       -2.4480317E-18
   111.1515       -2.4467461E-18
   111.3130       -2.4438627E-18
   111.4745       -2.4401311E-18
   111.6360       -2.4368526E-18
   111.7975       -2.4350355E-18
   111.9590       -2.4348564E-18
   112.1205       -2.4357189E-18
   112.2820       -2.4367825E-18
   112.4435       -2.4375236E-18
   112.6050       -2.4379428E-18
   112.7665       -2.4383421E-18
   112.9280       -2.4389482E-18
   113.0895       -2.4397361E-18
   113.2510       -2.4405532E-18
   113.4125       -2.4413692E-18
   113.5740       -2.4423686E-18
   113.7355       -2.4437511E-18
   113.8970       -2.4454195E-18
   114.0585       -2.4468559E-18
   114.2200       -2.4473902E-18
   114.3815       -2.4467088E-18
   114.5430       -2.4451992E-18
   114.7045       -2.4437736E-18
   114.8660       -2.4432196E-18
   115.0275       -2.4435474E-18
   115.1890       -2.4438890E-18
   115.3505       -2.4431203E-18
   115.5120       -2.4408069E-18
   115.6735       -2.4377511E-18
   115.8350       -2.4356567E-18
   115.9965       -2.4360533E-18
   116.1580       -2.4391852E-18
   116.3195       -2.4436801E-18
   116.4810       -2.4473208E-18
   116.6425       -2.4484666E-18
   116.8040       -2.4471704E-18
   116.9655       -2.4451755E-18
   117.1270       -2.4447346E-18
   117.2885       -2.4470031E-18
   117.4500       -2.4511177E-18
   117.6115       -2.4546194E-18
   117.7730       -2.4550355E-18
   117.9345       -2.4516277E-18
   118.0960       -2.4461300E-18
   118.2575       -2.4419083E-18
   118.4190       -2.4419348E-18
   118.5805       -2.4468298E-18
   118.7420       -2.4542600E-18