  -27.90000       -2.2841877E-18
  -27.73850       -2.2870187E-18
  -27.57700       -2.2911065E-18
  -27.41550       -2.2943941E-18
  -27.25400       -2.2956777E-18
  -27.09250       -2.2953460E-18
  -26.93100       -2.2950432E-18
  -26.76950       -2.2964835E-18
  -26.60800       -2.3002290E-18
  -26.44650       -2.3052626E-18
  -26.28500       -2.3096419E-18
  -26.12350       -2.3117913E-18
  -25.96200       -2.3115577E-18
  -25.80050       -2.3103136E-18
  -25.63900       -2.3100450E-18
  -25.47750       -2.3120287E-18
  -25.31600       -2.3160011E-18
  -25.15450       -2.3203614E-18
  -24.99300       -2.3232753E-18
  -24.83150       -2.3239126E-18
  -24.67000       -2.3229982E-18
  -24.50850       -2.3223023E-18
  -24.34700       -2.3234306E-18
  -24.18550       -2.3267342E-18
  -24.02400       -2.3310694E-18
  -23.86250       -2.3345812E-18
  -23.70100       -2.3359556E-18
  -23.53950       -2.3353126E-18
  -23.37800       -2.3341198E-18
  -23.21650       -2.3342017E-18
  -23.05500       -2.3365054E-18
  -22.89350       -2.3404637E-18
  -22.73200       -2.3443779E-18
  -22.57050       -2.3465623E-18
  -22.40900       -2.3464779E-18
  -22.24750       -2.3450899E-18
  -22.08600       -2.3442156E-18
  -21.92450       -2.3452934E-18
  -21.76300       -2.3484210E-18
  -21.60150       -2.3522914E-18
  -21.44000       -2.3550928E-18
  -21.27850       -2.3557436E-18
  -21.11700       -2.3546463E-18
  -20.95550       -2.3534316E-18
  -20.79400       -2.3538678E-18
  -20.63250       -2.3566603E-18
  -20.47100       -2.3609519E-18
  -20.30950       -2.3648693E-18
  -20.14800       -2.3667540E-18
  -19.98650       -2.3662595E-18
  -19.82500       -2.3645735E-18
  -19.66350       -2.3636192E-18
  -19.50200       -2.3647599E-18
  -19.34050       -2.3678856E-18
  -19.17900       -2.3714962E-18
  -19.01750       -2.3737296E-18
  -18.85600       -2.3736415E-18
  -18.69450       -2.3718786E-18
  -18.53300       -2.3702836E-18
  -18.37150       -2.3706821E-18
  -18.21000       -2.3736589E-18
  -18.04850       -2.3781420E-18
  -17.88700       -2.3820821E-18
  -17.72550       -2.3837891E-18
  -17.56400       -2.3830337E-18
  -17.40250       -2.3811831E-18
  -17.24100       -2.3802720E-18
  -17.07950       -2.3816255E-18
  -16.91800       -2.3849582E-18
  -16.75650       -2.3885638E-18
  -16.59500       -2.3904833E-18
  -16.43350       -2.3898660E-18
  -16.27200       -2.3875948E-18
  -16.11050       -2.3857417E-18
  -15.94900       -2.3862080E-18
  -15.78750       -2.3894450E-18
  -15.62600       -2.3941452E-18
  -15.46450       -2.3981035E-18
  -15.30300       -2.3996828E-18
  -15.14150       -2.3988862E-18
  -14.98000       -2.3973092E-18
  -14.81850       -2.3970191E-18
  -14.65700       -2.3991158E-18
  -14.49550       -2.4029622E-18
  -14.33400       -2.4066053E-18
  -14.17250       -2.4080959E-18
  -14.01100       -2.4068210E-18
  -13.84950       -2.4039430E-18
  -13.68800       -2.4016445E-18
  -13.52650       -2.4016864E-18
  -13.36500       -2.4042484E-18
  -13.20350       -2.4078274E-18
  -13.04200       -2.4102711E-18
  -12.88050       -2.4102519E-18
  -12.71900       -2.4081908E-18
  -12.55750       -2.4060000E-18
  -12.39600       -2.4058075E-18
  -12.23450       -2.4085132E-18
  -12.07300       -2.4131596E-18
  -11.91150       -2.4175673E-18
  -11.75000       -2.4198058E-18
  -11.58850       -2.4195103E-18
  -11.42700       -2.4181308E-18
  -11.26550       -2.4179312E-18
  -11.10400       -2.4204074E-18
  -10.94250       -2.4252055E-18
  -10.78100       -2.4302988E-18
  -10.61950       -2.4333242E-18
  -10.45800       -2.4331609E-18
  -10.29650       -2.4306890E-18
  -10.13500       -2.4281972E-18
  -9.973500       -2.4278316E-18
  -9.812000       -2.4301597E-18
  -9.650500       -2.4338106E-18
  -9.489000       -2.4364415E-18
  -9.327500       -2.4363676E-18
  -9.166000       -2.4337562E-18
  -9.004500       -2.4305619E-18
  -8.843000       -2.4292400E-18
  -8.681500       -2.4310997E-18
  -8.520000       -2.4354005E-18
  -8.358500       -2.4398182E-18
  -8.197000       -2.4419706E-18
  -8.035500       -2.4409949E-18
  -7.874000       -2.4381219E-18
  -7.712500       -2.4358438E-18
  -7.551000       -2.4362324E-18
  -7.389500       -2.4395258E-18
  -7.228000       -2.4439543E-18
  -7.066500       -2.4469309E-18
  -6.905000       -2.4468222E-18
  -6.743500       -2.4440929E-18
  -6.582000       -2.4410292E-18
  -6.420500       -2.4402171E-18
  -6.259000       -2.4427895E-18
  -6.097500       -2.4476442E-18
  -5.936000       -2.4521610E-18
  -5.774500       -2.4539477E-18
  -5.613000       -2.4524404E-18
  -5.451500       -2.4492659E-18
  -5.290000       -2.4471293E-18
  -5.128500       -2.4479757E-18
  -4.967000       -2.4516777E-18
  -4.805500       -2.4561319E-18
  -4.644000       -2.4586937E-18
  -4.482500       -2.4579877E-18
  -4.321000       -2.4548653E-18
  -4.159500       -2.4518651E-18
  -3.998000       -2.4515326E-18
  -3.836500       -2.4547217E-18
  -3.675000       -2.4600223E-18
  -3.513500       -2.4647004E-18
  -3.352000       -2.4665331E-18
  -3.190500       -2.4653049E-18
  -3.029000       -2.4629447E-18
  -2.867500       -2.4622011E-18
  -2.706000       -2.4647459E-18
  -2.544500       -2.4699915E-18
  -2.383000       -2.4754492E-18
  -2.221500       -2.4784000E-18
  -2.060000       -2.4777420E-18
  -1.898500       -2.4747567E-18
  -1.737000       -2.4722412E-18
  -1.575500       -2.4725891E-18
  -1.414000       -2.4761385E-18
  -1.252500       -2.4809243E-18
  -1.091000       -2.4840215E-18
 -0.9295000       -2.4835643E-18
 -0.7680000       -2.4800521E-18
 -0.6065000       -2.4760415E-18
 -0.4450000       -2.4744233E-18
 -0.2835000       -2.4764671E-18
 -0.1220000       -2.4809672E-18
  3.9500002E-02   -2.4850737E-18
  0.2010000       -2.4862448E-18
  0.3625000       -2.4839913E-18
  0.5240000       -2.4802181E-18
  0.6855000       -2.4779308E-18
  0.8470000       -2.4791664E-18
   1.008500       -2.4835602E-18
   1.170000       -2.4885274E-18
   1.331500       -2.4909576E-18
   1.493000       -2.4892942E-18
   1.654500       -2.4846022E-18
   1.816000       -2.4798821E-18
   1.977500       -2.4780786E-18
   2.139000       -2.4801152E-18
   2.300500       -2.4842930E-18
   2.462000       -2.4874752E-18
   2.623500       -2.4872761E-18
   2.785000       -2.4837690E-18
   2.946500       -2.4795287E-18
   3.108000       -2.4779506E-18
   3.269500       -2.4809612E-18
   3.431000       -2.4876837E-18
   3.592500       -2.4949750E-18
   3.754000       -2.4994995E-18
   3.915500       -2.4999330E-18
   4.077000       -2.4978057E-18
   4.238500       -2.4963986E-18
   4.400000       -2.4984424E-18
   4.561500       -2.5042031E-18
   4.723000       -2.5112509E-18
   4.884500       -2.5160892E-18
   5.046000       -2.5165101E-18
   5.207500       -2.5130798E-18
   5.369000       -2.5087414E-18
   5.530500       -2.5068192E-18
   5.692000       -2.5087817E-18
   5.853500       -2.5132839E-18
   6.015000       -2.5171176E-18
   6.176500       -2.5174175E-18
   6.338000       -2.5136230E-18
   6.499500       -2.5078708E-18
   6.661000       -2.5035721E-18
   6.822500       -2.5031366E-18
   6.984000       -2.5063866E-18
   7.145500       -2.5107250E-18
   7.307000       -2.5129329E-18
   7.468500       -2.5113935E-18
   7.630000       -2.5072175E-18
   7.791500       -2.5035043E-18
   7.953000       -2.5032301E-18
   8.114500       -2.5071968E-18
   8.276000       -2.5134580E-18
   8.437500       -2.5186210E-18
   8.599000       -2.5201509E-18
   8.760500       -2.5180914E-18
   8.922000       -2.5150156E-18
   9.083500       -2.5142380E-18
   9.245000       -2.5175056E-18
   9.406500       -2.5237582E-18
   9.568000       -2.5298147E-18
   9.729500       -2.5325251E-18
   9.891000       -2.5309086E-18
   10.05250       -2.5268130E-18
   10.21400       -2.5236462E-18
   10.37550       -2.5240451E-18
   10.53700       -2.5280658E-18
   10.69850       -2.5331370E-18
   10.86000       -2.5358018E-18
   11.02150       -2.5340810E-18
   11.18300       -2.5288642E-18
   11.34450       -2.5233738E-18
   11.50600       -2.5210525E-18
   11.66750       -2.5232925E-18
   11.82900       -2.5285271E-18
   11.99050       -2.5333109E-18
   12.15200       -2.5346700E-18
   12.31350       -2.5321423E-18
   12.47500       -2.5281224E-18
   12.63650       -2.5262561E-18
   12.79800       -2.5289430E-18
   12.95950       -2.5356471E-18
   13.12100       -2.5431720E-18
   13.28250       -2.5477399E-18
   13.44400       -2.5474861E-18
   13.60550       -2.5436712E-18
   13.76700       -2.5397849E-18
   13.92850       -2.5391417E-18
   14.09000       -2.5426171E-18
   14.25150       -2.5480678E-18
   14.41300       -2.5518299E-18
   14.57450       -2.5512651E-18
   14.73600       -2.5466004E-18
   14.89750       -2.5408118E-18
   15.05900       -2.5376431E-18
   15.22050       -2.5391204E-18
   15.38200       -2.5442440E-18
   15.54350       -2.5497164E-18
   15.70500       -2.5521783E-18
   15.86650       -2.5504429E-18
   16.02800       -2.5462329E-18
   16.18950       -2.5429604E-18
   16.35100       -2.5433819E-18
   16.51250       -2.5477076E-18
   16.67400       -2.5534278E-18
   16.83550       -2.5569749E-18
   16.99700       -2.5561192E-18
   17.15850       -2.5514905E-18
   17.32000       -2.5461959E-18
   17.48150       -2.5437555E-18
   17.64300       -2.5457377E-18
   17.80450       -2.5506972E-18
   17.96600       -2.5551801E-18
   18.12750       -2.5561260E-18
   18.28900       -2.5530262E-18
   18.45050       -2.5483340E-18
   18.61200       -2.5458098E-18
   18.77350       -2.5479446E-18
   18.93500       -2.5542338E-18
   19.09650       -2.5615064E-18
   19.25800       -2.5660882E-18
   19.41950       -2.5662968E-18
   19.58100       -2.5635508E-18
   19.74250       -2.5613377E-18
   19.90400       -2.5627633E-18
   20.06550       -2.5683755E-18
   20.22700       -2.5757432E-18
   20.38850       -2.5810647E-18
   20.55000       -2.5816985E-18
   20.71150       -2.5779243E-18
   20.87300       -2.5727472E-18
   21.03450       -2.5698895E-18
   21.19600       -2.5713098E-18
   21.35750       -2.5759205E-18
   21.51900       -2.5803709E-18
   21.68050       -2.5813621E-18
   21.84200       -2.5779369E-18
   22.00350       -2.5721880E-18
   22.16500       -2.5678858E-18
   22.32650       -2.5679357E-18
   22.48800       -2.5723824E-18
   22.64950       -2.5783300E-18
   22.81100       -2.5818588E-18
   22.97250       -2.5806679E-18
   23.13400       -2.5756343E-18
   23.29550       -2.5702216E-18
   23.45700       -2.5681280E-18
   23.61850       -2.5707870E-18
   23.78000       -2.5764298E-18
   23.94150       -2.5813515E-18
   24.10300       -2.5824936E-18
   24.26450       -2.5795776E-18
   24.42600       -2.5753212E-18
   24.58750       -2.5735799E-18
   24.74900       -2.5767001E-18
   24.91050       -2.5838854E-18
   25.07200       -2.5916915E-18
   25.23350       -2.5962972E-18
   25.39500       -2.5960036E-18
   25.55650       -2.5922790E-18
   25.71800       -2.5886754E-18
   25.87950       -2.5883772E-18
   26.04100       -2.5920341E-18
   26.20250       -2.5973345E-18
   26.36400       -2.6005979E-18
   26.52550       -2.5993063E-18
   26.68700       -2.5938616E-18
   26.84850       -2.5873765E-18
   27.01000       -2.5836287E-18
   27.17150       -2.5845659E-18
   27.33300       -2.5890435E-18
   27.49450       -2.5936498E-18
   27.65600       -2.5950664E-18
   27.81750       -2.5923553E-18
   27.97900       -2.5876114E-18
   28.14050       -2.5845238E-18
   28.30200       -2.5858332E-18
   28.46350       -2.5914392E-18
   28.62500       -2.5984669E-18
   28.78650       -2.6032257E-18
   28.94800       -2.6036943E-18
   29.10950       -2.6008256E-18
   29.27100       -2.5977932E-18
   29.43250       -2.5977398E-18
   29.59400       -2.6015806E-18
   29.75550       -2.6073643E-18
   29.91700       -2.6116096E-18
   30.07850       -2.6116834E-18
   30.24000       -2.6075897E-18
   30.40150       -2.6019692E-18
   30.56300       -2.5983399E-18
   30.72450       -2.5987883E-18
   30.88600       -2.6026580E-18
   31.04750       -2.6070857E-18
   31.20900       -2.6090042E-18
   31.37050       -2.6072493E-18
   31.53200       -2.6033649E-18
   31.69350       -2.6005520E-18
   31.85500       -2.6014739E-18
   32.01650       -2.6063830E-18
   32.17800       -2.6128516E-18
   32.33950       -2.6173022E-18
   32.50100       -2.6173494E-18
   32.66250       -2.6133764E-18
   32.82400       -2.6082856E-18
   32.98550       -2.6055629E-18
   33.14700       -2.6069451E-18
   33.30850       -2.6112700E-18
   33.47000       -2.6153108E-18
   33.63150       -2.6160509E-18
   33.79300       -2.6128367E-18
   33.95450       -2.6079162E-18
   34.11600       -2.6049725E-18
   34.27750       -2.6066364E-18
   34.43900       -2.6126901E-18
   34.60050       -2.6201868E-18
   34.76200       -2.6253991E-18
   34.92350       -2.6262687E-18
   35.08500       -2.6237050E-18
   35.24650       -2.6208707E-18
   35.40800       -2.6209731E-18
   35.56950       -2.6250697E-18
   35.73100       -2.6313641E-18
   35.89250       -2.6364422E-18
   36.05400       -2.6375779E-18
   36.21550       -2.6345715E-18
   36.37700       -2.6298847E-18
   36.53850       -2.6270009E-18
   36.70000       -2.6281153E-18
   36.86150       -2.6326911E-18
   37.02300       -2.6378548E-18
   37.18450       -2.6403659E-18
   37.34600       -2.6388269E-18
   37.50750       -2.6346275E-18
   37.66900       -2.6309733E-18
   37.83050       -2.6306693E-18
   37.99200       -2.6341869E-18
   38.15350       -2.6393483E-18
   38.31500       -2.6428470E-18
   38.47650       -2.6425250E-18
   38.63800       -2.6388313E-18
   38.79950       -2.6344478E-18
   38.96100       -2.6323743E-18
   39.12250       -2.6338179E-18
   39.28400       -2.6373738E-18
   39.44550       -2.6400288E-18
   39.60700       -2.6392804E-18
   39.76850       -2.6348780E-18
   39.93000       -2.6290133E-18
   40.09150       -2.6248560E-18
   40.25300       -2.6244687E-18
   40.41450       -2.6274983E-18
   40.57600       -2.6315173E-18
   40.73750       -2.6337305E-18
   40.89900       -2.6328911E-18
   41.06050       -2.6301266E-18
   41.22200       -2.6281338E-18
   41.38350       -2.6292970E-18
   41.54500       -2.6340080E-18
   41.70650       -2.6403092E-18
   41.86800       -2.6451234E-18
   42.02950       -2.6462476E-18
   42.19100       -2.6437900E-18
   42.35250       -2.6400898E-18
   42.51400       -2.6381658E-18
   42.67550       -2.6397252E-18
   42.83700       -2.6440673E-18
   42.99850       -2.6486160E-18
   43.16000       -2.6507119E-18
   43.32150       -2.6494409E-18
   43.48300       -2.6462538E-18
   43.64450       -2.6439674E-18
   43.80600       -2.6448471E-18
   43.96750       -2.6490689E-18
   44.12900       -2.6545961E-18
   44.29050       -2.6585252E-18
   44.45200       -2.6589797E-18
   44.61350       -2.6562844E-18
   44.77500       -2.6526729E-18
   44.93650       -2.6507629E-18
   45.09800       -2.6518513E-18
   45.25950       -2.6551400E-18
   45.42100       -2.6583633E-18
   45.58250       -2.6593513E-18
   45.74400       -2.6574838E-18
   45.90550       -2.6540938E-18
   46.06700       -2.6515901E-18
   46.22850       -2.6518831E-18
   46.39000       -2.6551439E-18
   46.55150       -2.6597076E-18
   46.71300       -2.6631781E-18
   46.87450       -2.6640011E-18
   47.03600       -2.6624696E-18
   47.19750       -2.6604879E-18
   47.35900       -2.6602505E-18
   47.52050       -2.6627219E-18
   47.68200       -2.6669401E-18
   47.84350       -2.6706314E-18
   48.00500       -2.6717305E-18
   48.16650       -2.6697742E-18
   48.32800       -2.6662043E-18
   48.48950       -2.6633652E-18
   48.65100       -2.6628971E-18
   48.81250       -2.6646319E-18
   48.97400       -2.6667546E-18
   49.13550       -2.6671039E-18
   49.29700       -2.6647063E-18
   49.45850       -2.6604953E-18
   49.62000       -2.6567346E-18
   49.78150       -2.6555430E-18
   49.94300       -2.6575270E-18
   50.10450       -2.6614199E-18
   50.26600       -2.6649574E-18
   50.42750       -2.6663782E-18
   50.58900       -2.6655506E-18
   50.75050       -2.6639993E-18
   50.91200       -2.6638314E-18
   51.07350       -2.6662810E-18
   51.23500       -2.6708206E-18
   51.39650       -2.6754303E-18
   51.55800       -2.6778696E-18
   51.71950       -2.6771291E-18
   51.88100       -2.6741051E-18
   52.04250       -2.6710342E-18
   52.20400       -2.6700416E-18
   52.36550       -2.6717646E-18
   52.52700       -2.6749648E-18
   52.68850       -2.6773988E-18
   52.85000       -2.6773663E-18
   53.01150       -2.6748939E-18
   53.17300       -2.6717531E-18
   53.33450       -2.6702927E-18
   53.49600       -2.6718651E-18
   53.65750       -2.6759148E-18
   53.81900       -2.6803392E-18
   53.98050       -2.6828652E-18
   54.14200       -2.6825172E-18
   54.30350       -2.6802203E-18
   54.46500       -2.6781548E-18
   54.62650       -2.6783128E-18
   54.78800       -2.6811910E-18
   54.94950       -2.6854694E-18
   55.11100       -2.6888666E-18
   55.27250       -2.6896324E-18
   55.43400       -2.6877015E-18
   55.59550       -2.6847603E-18
   55.75700       -2.6831673E-18
   55.91850       -2.6843961E-18
   56.08000       -2.6880235E-18
   56.24150       -2.6919301E-18
   56.40300       -2.6936436E-18
   56.56450       -2.6919751E-18
   56.72600       -2.6878649E-18
   56.88750       -2.6838264E-18
   57.04900       -2.6823060E-18
   57.21050       -2.6840394E-18
   57.37200       -2.6875280E-18
   57.53350       -2.6900383E-18
   57.69500       -2.6894862E-18
   57.85650       -2.6859216E-18
   58.01800       -2.6815878E-18
   58.17950       -2.6794651E-18
   58.34100       -2.6812642E-18
   58.50250       -2.6862360E-18
   58.66400       -2.6916312E-18
   58.82550       -2.6945293E-18
   58.98700       -2.6937958E-18
   59.14850       -2.6908431E-18
   59.31000       -2.6886615E-18
   59.47150       -2.6897620E-18
   59.63300       -2.6944226E-18
   59.79450       -2.7004260E-18
   59.95600       -2.7044951E-18
   60.11750       -2.7044807E-18
   60.27900       -2.7008307E-18
   60.44050       -2.6963220E-18
   60.60200       -2.6941901E-18
   60.76350       -2.6959005E-18
   60.92500       -2.7000916E-18
   61.08650       -2.7034585E-18
   61.24800       -2.7030323E-18
   61.40950       -2.6983008E-18
   61.57100       -2.6916997E-18
   61.73250       -2.6870493E-18
   61.89400       -2.6869757E-18
   62.05550       -2.6910971E-18
   62.21700       -2.6962792E-18
   62.37850       -2.6988337E-18
   62.54000       -2.6971525E-18
   62.70150       -2.6928941E-18
   62.86300       -2.6898646E-18
   63.02450       -2.6913200E-18
   63.18600       -2.6975772E-18
   63.34750       -2.7056424E-18
   63.50900       -2.7111537E-18
   63.67050       -2.7113312E-18
   63.83200       -2.7068811E-18
   63.99350       -2.7015146E-18
   64.15500       -2.6993910E-18
   64.31650       -2.7022396E-18
   64.47800       -2.7081602E-18
   64.63950       -2.7129367E-18
   64.80100       -2.7129820E-18
   64.96250       -2.7078917E-18
   65.12400       -2.7008376E-18
   65.28550       -2.6964876E-18
   65.44700       -2.6978419E-18
   65.60850       -2.7041519E-18
   65.77000       -2.7113663E-18
   65.93150       -2.7148502E-18
   66.09300       -2.7125471E-18
   66.25450       -2.7064190E-18
   66.41600       -2.7011417E-18
   66.57750       -2.7009064E-18
   66.73900       -2.7065143E-18
   66.90050       -2.7147762E-18
   67.06200       -2.7206785E-18
   67.22350       -2.7208365E-18
   67.38500       -2.7158434E-18
   67.54650       -2.7098586E-18
   67.70800       -2.7076996E-18
   67.86950       -2.7114544E-18
   68.03100       -2.7189851E-18
   68.19250       -2.7253711E-18
   68.35400       -2.7262988E-18
   68.51550       -2.7210394E-18
   68.67700       -2.7129477E-18
   68.83850       -2.7071463E-18
   69.00000       -2.7070199E-18
   69.16150       -2.7119596E-18
   69.32300       -2.7178938E-18
   69.48450       -2.7202174E-18
   69.64600       -2.7170534E-18
   69.80750       -2.7105917E-18
   69.96900       -2.7055880E-18
   70.13050       -2.7060653E-18
   70.29200       -2.7124985E-18
   70.45350       -2.7214432E-18
   70.61500       -2.7278642E-18
   70.77650       -2.7285644E-18
   70.93800       -2.7243489E-18
   71.09950       -2.7194197E-18
   71.26100       -2.7184073E-18
   71.42250       -2.7231009E-18
   71.58400       -2.7311483E-18
   71.74550       -2.7376427E-18
   71.90700       -2.7385162E-18
   72.06850       -2.7333720E-18
   72.23000       -2.7257814E-18
   72.39150       -2.7208094E-18
   72.55300       -2.7214927E-18
   72.71450       -2.7267215E-18
   72.87600       -2.7320177E-18
   73.03750       -2.7326795E-18
   73.19900       -2.7271059E-18
   73.36050       -2.7179953E-18
   73.52200       -2.7105749E-18
   73.68350       -2.7090719E-18
   73.84500       -2.7138768E-18
   74.00650       -2.7213429E-18
   74.16800       -2.7263559E-18
   74.32950       -2.7258910E-18
   74.49100       -2.7210830E-18
   74.65250       -2.7163906E-18
   74.81400       -2.7164467E-18
   74.97550       -2.7227700E-18
   75.13700       -2.7326275E-18
   75.29850       -2.7408233E-18
   75.46000       -2.7431846E-18
   75.62150       -2.7393527E-18
   75.78300       -2.7329533E-18
   75.94450       -2.7290498E-18
   76.10600       -2.7306425E-18
   76.26750       -2.7366342E-18
   76.42900       -2.7426385E-18
   76.59050       -2.7440755E-18
   76.75200       -2.7393796E-18
   76.91350       -2.7311109E-18
   77.07500       -2.7242081E-18
   77.23650       -2.7226017E-18
   77.39800       -2.7265494E-18
   77.55950       -2.7325293E-18
   77.72100       -2.7357427E-18
   77.88250       -2.7334682E-18
   78.04400       -2.7269268E-18
   78.20550       -2.7203913E-18
   78.36700       -2.7182071E-18
   78.52850       -2.7218074E-18
   78.69000       -2.7288006E-18
   78.85150       -2.7347001E-18
   79.01300       -2.7360591E-18
   79.17450       -2.7328124E-18
   79.33600       -2.7282309E-18
   79.49750       -2.7265862E-18
   79.65900       -2.7301752E-18
   79.82050       -2.7377672E-18
   79.98200       -2.7454842E-18
   80.14350       -2.7494627E-18
   80.30500       -2.7484412E-18
   80.46650       -2.7445160E-18
   80.62800       -2.7416167E-18
   80.78950       -2.7427684E-18
   80.95100       -2.7480363E-18
   81.11250       -2.7545274E-18
   81.27400       -2.7584149E-18
   81.43550       -2.7575644E-18
   81.59700       -2.7529727E-18
   81.75850       -2.7480493E-18
   81.92000       -2.7462576E-18
   82.08150       -2.7487487E-18
   82.24300       -2.7536144E-18
   82.40450       -2.7572562E-18
   82.56600       -2.7569088E-18
   82.72750       -2.7525626E-18
   82.88900       -2.7469572E-18
   83.05050       -2.7436770E-18
   83.21200       -2.7446901E-18
   83.37350       -2.7490419E-18
   83.53500       -2.7535786E-18
   83.69650       -2.7551484E-18
   83.85800       -2.7527421E-18
   84.01950       -2.7480944E-18
   84.18100       -2.7443977E-18
   84.34250       -2.7440693E-18
   84.50400       -2.7471152E-18
   84.66550       -2.7511839E-18
   84.82700       -2.7531966E-18
   84.98850       -2.7514147E-18
   85.15000       -2.7465521E-18
   85.31150       -2.7412515E-18
   85.47300       -2.7383283E-18
   85.63450       -2.7389764E-18
   85.79600       -2.7421002E-18
   85.95750       -2.7451571E-18
   86.11900       -2.7459088E-18
   86.28050       -2.7439068E-18
   86.44200       -2.7407513E-18
   86.60350       -2.7389913E-18
   86.76500       -2.7404121E-18
   86.92650       -2.7448673E-18
   87.08800       -2.7503861E-18
   87.24950       -2.7544550E-18
   87.41100       -2.7555963E-18
   87.57250       -2.7542089E-18
   87.73400       -2.7521705E-18
   87.89550       -2.7515276E-18
   88.05700       -2.7531619E-18
   88.21850       -2.7562986E-18
   88.38000       -2.7590996E-18
   88.54150       -2.7599020E-18
   88.70300       -2.7582759E-18
   88.86450       -2.7552675E-18
   89.02600       -2.7527326E-18
   89.18750       -2.7522129E-18
   89.34900       -2.7540455E-18
   89.51050       -2.7572267E-18
   89.67200       -2.7600720E-18
   89.83350       -2.7612710E-18
   89.99500       -2.7606791E-18
   90.15650       -2.7593870E-18
   90.31800       -2.7590078E-18
   90.47950       -2.7606183E-18
   90.64100       -2.7640162E-18
   90.80250       -2.7677732E-18
   90.96400       -2.7700945E-18
   91.12550       -2.7699636E-18
   91.28700       -2.7678332E-18
   91.44850       -2.7653810E-18
   91.61000       -2.7644376E-18
   91.77150       -2.7657729E-18
   91.93300       -2.7685408E-18
   92.09450       -2.7707957E-18
   92.25600       -2.7707846E-18
   92.41750       -2.7681781E-18
   92.57900       -2.7643840E-18
   92.74050       -2.7616810E-18
   92.90200       -2.7616951E-18
   93.06350       -2.7642378E-18
   93.22500       -2.7673377E-18
   93.38650       -2.7685063E-18
   93.54800       -2.7664423E-18
   93.70950       -2.7620142E-18
   93.87100       -2.7578094E-18
   94.03250       -2.7564654E-18
   94.19400       -2.7588610E-18
   94.35550       -2.7634038E-18
   94.51700       -2.7669866E-18
   94.67850       -2.7670538E-18
   94.84000       -2.7634270E-18
   95.00150       -2.7585930E-18
   95.16300       -2.7561505E-18
   95.32450       -2.7583814E-18
   95.48600       -2.7645820E-18
   95.64750       -2.7713816E-18
   95.80900       -2.7749414E-18
   95.97050       -2.7736154E-18
   96.13200       -2.7692013E-18
   96.29350       -2.7658147E-18
   96.45500       -2.7670484E-18
   96.61650       -2.7733403E-18
   96.77800       -2.7814438E-18
   96.93950       -2.7864921E-18
   97.10100       -2.7853103E-18
   97.26250       -2.7786796E-18
   97.42400       -2.7709252E-18
   97.58550       -2.7670101E-18
   97.74700       -2.7691223E-18
   97.90850       -2.7751345E-18
   98.07000       -2.7800903E-18
   98.23150       -2.7797165E-18
   98.39300       -2.7735354E-18
   98.55450       -2.7653413E-18
   98.71600       -2.7606562E-18
   98.87750       -2.7628784E-18
   99.03900       -2.7708282E-18
   99.20050       -2.7794412E-18
   99.36200       -2.7831954E-18
   99.52350       -2.7799154E-18
   99.68500       -2.7722911E-18
   99.84650       -2.7660041E-18
   100.0080       -2.7657363E-18
   100.1695       -2.7718504E-18
   100.3310       -2.7801036E-18
   100.4925       -2.7846398E-18
   100.6540       -2.7821757E-18
   100.8155       -2.7744237E-18
   100.9770       -2.7669930E-18
   101.1385       -2.7654929E-18
   101.3000       -2.7715580E-18
   101.4615       -2.7816248E-18
   101.6230       -2.7893736E-18
   101.7845       -2.7901404E-18
   101.9460       -2.7841973E-18
   102.1075       -2.7765608E-18
   102.2690       -2.7734322E-18
   102.4305       -2.7777680E-18
   102.5920       -2.7871239E-18
   102.7535       -2.7953150E-18
   102.9150       -2.7967512E-18
   103.0765       -2.7903964E-18
   103.2380       -2.7805416E-18
   103.3995       -2.7738203E-18
   103.5610       -2.7745400E-18
   103.7225       -2.7816167E-18
   103.8840       -2.7892979E-18
   104.0455       -2.7911967E-18
   104.2070       -2.7848320E-18
   104.3685       -2.7734754E-18
   104.5300       -2.7639889E-18
   104.6915       -2.7621248E-18
   104.8530       -2.7685663E-18
   105.0145       -2.7784856E-18
   105.1760       -2.7849397E-18
   105.3375       -2.7837488E-18
   105.4990       -2.7764311E-18
   105.6605       -2.7691226E-18
   105.8220       -2.7682236E-18
   105.9835       -2.7758115E-18
   106.1450       -2.7880590E-18
   106.3065       -2.7977804E-18
   106.4680       -2.7993496E-18
   106.6295       -2.7925611E-18
   106.7910       -2.7827406E-18
   106.9525       -2.7770403E-18
   107.1140       -2.7795076E-18
   107.2755       -2.7883599E-18
   107.4370       -2.7973410E-18
   107.5985       -2.8001780E-18
   107.7600       -2.7949930E-18
   107.9215       -2.7855876E-18
   108.0830       -2.7787358E-18
   108.2445       -2.7794145E-18
   108.4060       -2.7873325E-18
   108.5675       -2.7971569E-18
   108.7290       -2.8022375E-18
   108.8905       -2.7991964E-18
   109.0520       -2.7901886E-18
   109.2135       -2.7812974E-18
   109.3750       -2.7782732E-18
   109.5365       -2.7826004E-18
   109.6980       -2.7906361E-18
   109.8595       -2.7963180E-18
   110.0210       -2.7954900E-18
   110.1825       -2.7887877E-18
   110.3440       -2.7811223E-18
   110.5055       -2.7781858E-18
   110.6670       -2.7824656E-18
   110.8285       -2.7915373E-18
   110.9900       -2.7997781E-18
   111.1515       -2.8022689E-18
   111.3130       -2.7981549E-18
   111.4745       -2.7911491E-18
   111.6360       -2.7868676E-18
   111.7975       -2.7888909E-18
   111.9590       -2.7962917E-18
   112.1205       -2.8043296E-18
   112.2820       -2.8077935E-18
   112.4435       -2.8046425E-18
   112.6050       -2.7974123E-18
   112.7665       -2.7914184E-18
   112.9280       -2.7910271E-18
   113.0895       -2.7965969E-18
   113.2510       -2.8042225E-18
   113.4125       -2.8084457E-18
   113.5740       -2.8060314E-18
   113.7355       -2.7981957E-18
   113.8970       -2.7897642E-18
   114.0585       -2.7858752E-18
   114.2200       -2.7885075E-18
   114.3815       -2.7952073E-18
   114.5430       -2.8008389E-18
   114.7045       -2.8011324E-18
   114.8660       -2.7955783E-18
   115.0275       -2.7877198E-18
   115.1890       -2.7826784E-18
   115.3505       -2.7836301E-18
   115.5120       -2.7896497E-18
   115.6735       -2.7963612E-18
   115.8350       -2.7989174E-18
   115.9965       -2.7952749E-18
   116.1580       -2.7875463E-18
   116.3195       -2.7805573E-18
   116.4810       -2.7786149E-18
   116.6425       -2.7826964E-18
   116.8040       -2.7899375E-18
   116.9655       -2.7957100E-18
   117.1270       -2.7968205E-18
   117.2885       -2.7936166E-18
   117.4500       -2.7896035E-18
   117.6115       -2.7889095E-18
   117.7730       -2.7933976E-18
   117.9345       -2.8013807E-18
   118.0960       -2.8087826E-18
   118.2575       -2.8118725E-18
   118.4190       -2.8096960E-18
   118.5805       -2.8045724E-18
   118.7420       -2.8003945E-18