  -27.90000        4.2937970E-18
  -27.73850        4.2927440E-18
  -27.57700        4.2911719E-18
  -27.41550        4.2896577E-18
  -27.25400        4.2883595E-18
  -27.09250        4.2870025E-18
  -26.93100        4.2852989E-18
  -26.76950        4.2833364E-18
  -26.60800        4.2815452E-18
  -26.44650        4.2802746E-18
  -26.28500        4.2794127E-18
  -26.12350        4.2784606E-18
  -25.96200        4.2770023E-18
  -25.80050        4.2751151E-18
  -25.63900        4.2733147E-18
  -25.47750        4.2720566E-18
  -25.31600        4.2712931E-18
  -25.15450        4.2705160E-18
  -24.99300        4.2692545E-18
  -24.83150        4.2675385E-18
  -24.67000        4.2658701E-18
  -24.50850        4.2647315E-18
  -24.34700        4.2641181E-18
  -24.18550        4.2635561E-18
  -24.02400        4.2625651E-18
  -23.86250        4.2610993E-18
  -23.70100        4.2595542E-18
  -23.53950        4.2583510E-18
  -23.37800        4.2575354E-18
  -23.21650        4.2567794E-18
  -23.05500        4.2557636E-18
  -22.89350        4.2545315E-18
  -22.73200        4.2534438E-18
  -22.57050        4.2527613E-18
  -22.40900        4.2523118E-18
  -22.24750        4.2516091E-18
  -22.08600        4.2503344E-18
  -21.92450        4.2487028E-18
  -21.76300        4.2473177E-18
  -21.60150        4.2466237E-18
  -21.44000        4.2464789E-18
  -21.27850        4.2462647E-18
  -21.11700        4.2454354E-18
  -20.95550        4.2439858E-18
  -20.79400        4.2424108E-18
  -20.63250        4.2412201E-18
  -20.47100        4.2404864E-18
  -20.30950        4.2398491E-18
  -20.14800        4.2389392E-18
  -19.98650        4.2377861E-18
  -19.82500        4.2367955E-18
  -19.66350        4.2363224E-18
  -19.50200        4.2362835E-18
  -19.34050        4.2362124E-18
  -19.17900        4.2356912E-18
  -19.01750        4.2347284E-18
  -18.85600        4.2336899E-18
  -18.69450        4.2328668E-18
  -18.53300        4.2321521E-18
  -18.37150        4.2311604E-18
  -18.21000        4.2296789E-18
  -18.04850        4.2279728E-18
  -17.88700        4.2266187E-18
  -17.72550        4.2259971E-18
  -17.56400        4.2259396E-18
  -17.40250        4.2258747E-18
  -17.24100        4.2253507E-18
  -17.07950        4.2244308E-18
  -16.91800        4.2235768E-18
  -16.75650        4.2231371E-18
  -16.59500        4.2229551E-18
  -16.43350        4.2224898E-18
  -16.27200        4.2213492E-18
  -16.11050        4.2197089E-18
  -15.94900        4.2181869E-18
  -15.78750        4.2172873E-18
  -15.62600        4.2169510E-18
  -15.46450        4.2166243E-18
  -15.30300        4.2157740E-18
  -15.14150        4.2143442E-18
  -14.98000        4.2127469E-18
  -14.81850        4.2114412E-18
  -14.65700        4.2105354E-18
  -14.49550        4.2097823E-18
  -14.33400        4.2089278E-18
  -14.17250        4.2080183E-18
  -14.01100        4.2073483E-18
  -13.84950        4.2071167E-18
  -13.68800        4.2071870E-18
  -13.52650        4.2072246E-18
  -13.36500        4.2070848E-18
  -13.20350        4.2070191E-18
  -13.04200        4.2074405E-18
  -12.88050        4.2084547E-18
  -12.71900        4.2096408E-18
  -12.55750        4.2103472E-18
  -12.39600        4.2102525E-18
  -12.23450        4.2096470E-18
  -12.07300        4.2091574E-18
  -11.91150        4.2091483E-18
  -11.75000        4.2093517E-18
  -11.58850        4.2090846E-18
  -11.42700        4.2078570E-18
  -11.26550        4.2058222E-18
  -11.10400        4.2036483E-18
  -10.94250        4.2019431E-18
  -10.78100        4.2007673E-18
  -10.61950        4.1996741E-18
  -10.45800        4.1981939E-18
  -10.29650        4.1962765E-18
  -10.13500        4.1942714E-18
  -9.973500        4.1925186E-18
  -9.812000        4.1909962E-18
  -9.650500        4.1893699E-18
  -9.489000        4.1873744E-18
  -9.327500        4.1851129E-18
  -9.166000        4.1829924E-18
  -9.004500        4.1813740E-18
  -8.843000        4.1803082E-18
  -8.681500        4.1796047E-18
  -8.520000        4.1791340E-18
  -8.358500        4.1790008E-18
  -8.197000        4.1793913E-18
  -8.035500        4.1802441E-18
  -7.874000        4.1811432E-18
  -7.712500        4.1816052E-18
  -7.551000        4.1815262E-18
  -7.389500        4.1813186E-18
  -7.228000        4.1815382E-18
  -7.066500        4.1823182E-18
  -6.905000        4.1831516E-18
  -6.743500        4.1832749E-18
  -6.582000        4.1823356E-18
  -6.420500        4.1807317E-18
  -6.259000        4.1793090E-18
  -6.097500        4.1786600E-18
  -5.936000        4.1786402E-18
  -5.774500        4.1785165E-18
  -5.613000        4.1776050E-18
  -5.451500        4.1758336E-18
  -5.290000        4.1737590E-18
  -5.128500        4.1720806E-18
  -4.967000        4.1711211E-18
  -4.805500        4.1707150E-18
  -4.644000        4.1705156E-18
  -4.482500        4.1703390E-18
  -4.321000        4.1702215E-18
  -4.159500        4.1702207E-18
  -3.998000        4.1702641E-18
  -3.836500        4.1702571E-18
  -3.675000        4.1702910E-18
  -3.513500        4.1706728E-18
  -3.352000        4.1716455E-18
  -3.190500        4.1730443E-18
  -3.029000        4.1742739E-18
  -2.867500        4.1746974E-18
  -2.706000        4.1741527E-18
  -2.544500        4.1731043E-18
  -2.383000        4.1722494E-18
  -2.221500        4.1719053E-18
  -2.060000        4.1717402E-18
  -1.898500        4.1711145E-18
  -1.737000        4.1697298E-18
  -1.575500        4.1679592E-18
  -1.414000        4.1665394E-18
  -1.252500        4.1659090E-18
  -1.091000        4.1658081E-18
 -0.9295000        4.1655136E-18
 -0.7680000        4.1644743E-18
 -0.6065000        4.1627604E-18
 -0.4450000        4.1609360E-18
 -0.2835000        4.1595009E-18
 -0.1220000        4.1584363E-18
  3.9500002E-02    4.1572542E-18
  0.2010000        4.1554791E-18
  0.3625000        4.1530952E-18
  0.5240000        4.1505574E-18
  0.6855000        4.1484030E-18
  0.8470000        4.1468578E-18
   1.008500        4.1457837E-18
   1.170000        4.1449235E-18
   1.331500        4.1441285E-18
   1.493000        4.1433531E-18
   1.654500        4.1425184E-18
   1.816000        4.1415159E-18
   1.977500        4.1404145E-18
   2.139000        4.1396295E-18
   2.300500        4.1397528E-18
   2.462000        4.1410804E-18
   2.623500        4.1432236E-18
   2.785000        4.1452399E-18
   2.946500        4.1462867E-18
   3.108000        4.1463036E-18
   3.269500        4.1461096E-18
   3.431000        4.1467528E-18
   3.592500        4.1486148E-18
   3.754000        4.1510272E-18
   3.915500        4.1527457E-18
   4.077000        4.1528888E-18
   4.238500        4.1515591E-18
   4.400000        4.1496525E-18
   4.561500        4.1480953E-18
   4.723000        4.1471833E-18
   4.884500        4.1465278E-18
   5.046000        4.1455294E-18
   5.207500        4.1438982E-18
   5.369000        4.1417901E-18
   5.530500        4.1395662E-18
   5.692000        4.1375041E-18
   5.853500        4.1357252E-18
   6.015000        4.1343231E-18
   6.176500        4.1334244E-18
   6.338000        4.1330580E-18
   6.499500        4.1329918E-18
   6.661000        4.1328065E-18
   6.822500        4.1322324E-18
   6.984000        4.1314413E-18
   7.145500        4.1309631E-18
   7.307000        4.1312200E-18
   7.468500        4.1321109E-18
   7.630000        4.1330634E-18
   7.791500        4.1335460E-18
   7.953000        4.1335704E-18
   8.114500        4.1336751E-18
   8.276000        4.1343748E-18
   8.437500        4.1355796E-18
   8.599000        4.1365549E-18
   8.760500        4.1365110E-18
   8.922000        4.1353240E-18
   9.083500        4.1337143E-18
   9.245000        4.1326866E-18
   9.406500        4.1326870E-18
   9.568000        4.1332255E-18
   9.729500        4.1332826E-18
   9.891000        4.1321373E-18
   10.05250        4.1299134E-18
   10.21400        4.1274195E-18
   10.37550        4.1254926E-18
   10.53700        4.1244408E-18
   10.69850        4.1239668E-18
   10.86000        4.1235152E-18
   11.02150        4.1226711E-18
   11.18300        4.1213219E-18
   11.34450        4.1195919E-18
   11.50600        4.1177514E-18
   11.66750        4.1161760E-18
   11.82900        4.1152575E-18
   11.99050        4.1151714E-18
   12.15200        4.1156016E-18
   12.31350        4.1157492E-18
   12.47500        4.1147872E-18
   12.63650        4.1125261E-18
   12.79800        4.1097257E-18
   12.95950        4.1076792E-18
   13.12100        4.1073037E-18
   13.28250        4.1084415E-18
   13.44400        4.1099846E-18
   13.60550        4.1107468E-18
   13.76700        4.1103754E-18
   13.92850        4.1095598E-18
   14.09000        4.1093990E-18
   14.25150        4.1104850E-18
   14.41300        4.1124773E-18
   14.57450        4.1144526E-18
   14.73600        4.1156764E-18
   14.89750        4.1161099E-18
   15.05900        4.1162745E-18
   15.22050        4.1167042E-18
   15.38200        4.1175041E-18
   15.54350        4.1183739E-18
   15.70500        4.1189413E-18
   15.86650        4.1190480E-18
   16.02800        4.1187337E-18
   16.18950        4.1180645E-18
   16.35100        4.1170504E-18
   16.51250        4.1157228E-18
   16.67400        4.1142222E-18
   16.83550        4.1127209E-18
   16.99700        4.1112394E-18
   17.15850        4.1095880E-18
   17.32000        4.1075849E-18
   17.48150        4.1053838E-18
   17.64300        4.1035500E-18
   17.80450        4.1027149E-18
   17.96600        4.1030239E-18
   18.12750        4.1038957E-18
   18.28900        4.1043982E-18
   18.45050        4.1040082E-18
   18.61200        4.1030983E-18
   18.77350        4.1026603E-18
   18.93500        4.1034495E-18
   19.09650        4.1052631E-18
   19.25800        4.1069869E-18
   19.41950        4.1074009E-18
   19.58100        4.1060857E-18
   19.74250        4.1037092E-18
   19.90400        4.1014973E-18
   20.06550        4.1003484E-18
   20.22700        4.1002996E-18
   20.38850        4.1006755E-18
   20.55000        4.1006912E-18
   20.71150        4.0999790E-18
   20.87300        4.0986870E-18
   21.03450        4.0972249E-18
   21.19600        4.0959808E-18
   21.35750        4.0952004E-18
   21.51900        4.0949738E-18
   21.68050        4.0951884E-18
   21.84200        4.0954899E-18
   22.00350        4.0954171E-18
   22.16500        4.0947405E-18
   22.32650        4.0937644E-18
   22.48800        4.0932458E-18
   22.64950        4.0938732E-18
   22.81100        4.0956611E-18
   22.97250        4.0978064E-18
   23.13400        4.0992056E-18
   23.29550        4.0992739E-18
   23.45700        4.0983830E-18
   23.61850        4.0975186E-18
   23.78000        4.0974280E-18
   23.94150        4.0979797E-18
   24.10300        4.0983027E-18
   24.26450        4.0975678E-18
   24.42600        4.0957120E-18
   24.58750        4.0934857E-18
   24.74900        4.0918119E-18
   24.91050        4.0910620E-18
   25.07200        4.0908507E-18
   25.23350        4.0904607E-18
   25.39500        4.0894643E-18
   25.55650        4.0880052E-18
   25.71800        4.0865894E-18
   25.87950        4.0856642E-18
   26.04100        4.0853574E-18
   26.20250        4.0855211E-18
   26.36400        4.0859149E-18
   26.52550        4.0863066E-18
   26.68700        4.0864836E-18
   26.84850        4.0863049E-18
   27.01000        4.0858644E-18
   27.17150        4.0855935E-18
   27.33300        4.0860700E-18
   27.49450        4.0875519E-18
   27.65600        4.0896149E-18
   27.81750        4.0912920E-18
   27.97900        4.0917176E-18
   28.14050        4.0907870E-18
   28.30200        4.0892538E-18
   28.46350        4.0881201E-18
   28.62500        4.0878112E-18
   28.78650        4.0878182E-18
   28.94800        4.0871300E-18
   29.10950        4.0851005E-18
   29.27100        4.0820342E-18
   29.43250        4.0790063E-18
   29.59400        4.0770984E-18
   29.75550        4.0766728E-18
   29.91700        4.0772551E-18
   30.07850        4.0780170E-18
   30.24000        4.0784008E-18
   30.40150        4.0783863E-18
   30.56300        4.0783127E-18
   30.72450        4.0785220E-18
   30.88600        4.0791361E-18
   31.04750        4.0800601E-18
   31.20900        4.0810688E-18
   31.37050        4.0818828E-18
   31.53200        4.0822377E-18
   31.69350        4.0820160E-18
   31.85500        4.0813952E-18
   32.01650        4.0808339E-18
   32.17800        4.0807975E-18
   32.33950        4.0813534E-18
   32.50100        4.0819837E-18
   32.66250        4.0818807E-18
   32.82400        4.0805825E-18
   32.98550        4.0784363E-18
   33.14700        4.0764486E-18
   33.30850        4.0755433E-18
   33.47000        4.0758183E-18
   33.63150        4.0764296E-18
   33.79300        4.0762460E-18
   33.95450        4.0747661E-18
   34.11600        4.0725538E-18
   34.27750        4.0708453E-18
   34.43900        4.0706406E-18
   34.60050        4.0719872E-18
   34.76200        4.0739795E-18
   34.92350        4.0754349E-18
   35.08500        4.0756901E-18
   35.24650        4.0749494E-18
   35.40800        4.0739989E-18
   35.56950        4.0736089E-18
   35.73100        4.0740564E-18
   35.89250        4.0750337E-18
   36.05400        4.0758903E-18
   36.21550        4.0760040E-18
   36.37700        4.0751020E-18
   36.53850        4.0734373E-18
   36.70000        4.0717167E-18
   36.86150        4.0707589E-18
   37.02300        4.0709938E-18
   37.18450        4.0721134E-18
   37.34600        4.0731693E-18
   37.50750        4.0731643E-18
   37.66900        4.0717759E-18
   37.83050        4.0696554E-18
   37.99200        4.0680093E-18
   38.15350        4.0677082E-18
   38.31500        4.0686111E-18
   38.47650        4.0696720E-18
   38.63800        4.0697919E-18
   38.79950        4.0687372E-18
   38.96100        4.0673496E-18
   39.12250        4.0668525E-18
   39.28400        4.0678244E-18
   39.44550        4.0696831E-18
   39.60700        4.0711055E-18
   39.76850        4.0710223E-18
   39.93000        4.0693932E-18
   40.09150        4.0671660E-18
   40.25300        4.0655191E-18
   40.41450        4.0649959E-18
   40.57600        4.0651849E-18
   40.73750        4.0651051E-18
   40.89900        4.0639346E-18
   41.06050        4.0615523E-18
   41.22200        4.0585741E-18
   41.38350        4.0559685E-18
   41.54500        4.0545304E-18
   41.70650        4.0544837E-18
   41.86800        4.0553659E-18
   42.02950        4.0562576E-18
   42.19100        4.0563113E-18
   42.35250        4.0553530E-18
   42.51400        4.0541416E-18
   42.67550        4.0539932E-18
   42.83700        4.0558911E-18
   42.99850        4.0596697E-18
   43.16000        4.0639375E-18
   43.32150        4.0669315E-18
   43.48300        4.0677430E-18
   43.64450        4.0669886E-18
   43.80600        4.0663599E-18
   43.96750        4.0673352E-18
   44.12900        4.0700413E-18
   44.29050        4.0731635E-18
   44.45200        4.0749564E-18
   44.61350        4.0745511E-18
   44.77500        4.0725290E-18
   44.93650        4.0703751E-18
   45.09800        4.0693303E-18
   45.25950        4.0695607E-18
   45.42100        4.0701993E-18
   45.58250        4.0701058E-18
   45.74400        4.0686876E-18
   45.90550        4.0662152E-18
   46.06700        4.0635252E-18
   46.22850        4.0614287E-18
   46.39000        4.0602338E-18
   46.55150        4.0596329E-18
   46.71300        4.0589372E-18
   46.87450        4.0575021E-18
   47.03600        4.0551508E-18
   47.19750        4.0523649E-18
   47.35900        4.0500777E-18
   47.52050        4.0490979E-18
   47.68200        4.0494821E-18
   47.84350        4.0503610E-18
   48.00500        4.0504768E-18
   48.16650        4.0491355E-18
   48.32800        4.0468492E-18
   48.48950        4.0450728E-18
   48.65100        4.0451278E-18
   48.81250        4.0471288E-18
   48.97400        4.0497915E-18
   49.13550        4.0513545E-18
   49.29700        4.0509347E-18
   49.45850        4.0492484E-18
   49.62000        4.0481090E-18
   49.78150        4.0490644E-18
   49.94300        4.0522284E-18
   50.10450        4.0561839E-18
   50.26600        4.0589889E-18
   50.42750        4.0594811E-18
   50.58900        4.0579438E-18
   50.75050        4.0557472E-18
   50.91200        4.0543488E-18
   51.07350        4.0543952E-18
   51.23500        4.0554597E-18
   51.39650        4.0564561E-18
   51.55800        4.0563680E-18
   51.71950        4.0548501E-18
   51.88100        4.0523996E-18
   52.04250        4.0500574E-18
   52.20400        4.0487947E-18
   52.36550        4.0489167E-18
   52.52700        4.0498337E-18
   52.68850        4.0503982E-18
   52.85000        4.0496579E-18
   53.01150        4.0475474E-18
   53.17300        4.0449901E-18
   53.33450        4.0432741E-18
   53.49600        4.0431215E-18
   53.65750        4.0441588E-18
   53.81900        4.0452445E-18
   53.98050        4.0454099E-18
   54.14200        4.0446497E-18
   54.30350        4.0439127E-18
   54.46500        4.0442986E-18
   54.62650        4.0461217E-18
   54.78800        4.0486281E-18
   54.94950        4.0505728E-18
   55.11100        4.0511886E-18
   55.27250        4.0507452E-18
   55.43400        4.0502725E-18
   55.59550        4.0507080E-18
   55.75700        4.0521597E-18
   55.91850        4.0538517E-18
   56.08000        4.0547368E-18
   56.24150        4.0542620E-18
   56.40300        4.0527284E-18
   56.56450        4.0510480E-18
   56.72600        4.0501377E-18
   56.88750        4.0503680E-18
   57.04900        4.0513722E-18
   57.21050        4.0522772E-18
   57.37200        4.0521936E-18
   57.53350        4.0507237E-18
   57.69500        4.0482190E-18
   57.85650        4.0456204E-18
   58.01800        4.0439437E-18
   58.17950        4.0436584E-18
   58.34100        4.0443677E-18
   58.50250        4.0450575E-18
   58.66400        4.0447825E-18
   58.82550        4.0433511E-18
   58.98700        4.0414758E-18
   59.14850        4.0402479E-18
   59.31000        4.0403004E-18
   59.47150        4.0413013E-18
   59.63300        4.0421843E-18
   59.79450        4.0419262E-18
   59.95600        4.0402686E-18
   60.11750        4.0378354E-18
   60.27900        4.0356211E-18
   60.44050        4.0342897E-18
   60.60200        4.0338397E-18
   60.76350        4.0338145E-18
   60.92500        4.0338058E-18
   61.08650        4.0337835E-18
   61.24800        4.0340263E-18
   61.40950        4.0347856E-18
   61.57100        4.0360359E-18
   61.73250        4.0375091E-18
   61.89400        4.0389401E-18
   62.05550        4.0402541E-18
   62.21700        4.0415387E-18
   62.37850        4.0428725E-18
   62.54000        4.0441960E-18
   62.70150        4.0453363E-18
   62.86300        4.0461205E-18
   63.02450        4.0464584E-18
   63.18600        4.0463430E-18
   63.34750        4.0458247E-18
   63.50900        4.0450137E-18
   63.67050        4.0440935E-18
   63.83200        4.0432609E-18
   63.99350        4.0425921E-18
   64.15500        4.0419242E-18
   64.31650        4.0409150E-18
   64.47800        4.0392971E-18
   64.63950        4.0371509E-18
   64.80100        4.0349461E-18
   64.96250        4.0332541E-18
   65.12400        4.0323417E-18
   65.28550        4.0319864E-18
   65.44700        4.0316862E-18
   65.60850        4.0310922E-18
   65.77000        4.0302953E-18
   65.93150        4.0297212E-18
   66.09300        4.0297448E-18
   66.25450        4.0303722E-18
   66.41600        4.0312643E-18
   66.57750        4.0320443E-18
   66.73900        4.0325820E-18
   66.90050        4.0330084E-18
   67.06200        4.0334745E-18
   67.22350        4.0339402E-18
   67.38500        4.0342140E-18
   67.54650        4.0342165E-18
   67.70800        4.0341623E-18
   67.86950        4.0344473E-18
   68.03100        4.0352885E-18
   68.19250        4.0364590E-18
   68.35400        4.0373685E-18
   68.51550        4.0374599E-18
   68.67700        4.0366104E-18
   68.83850        4.0352004E-18
   69.00000        4.0338153E-18
   69.16150        4.0328343E-18
   69.32300        4.0322156E-18
   69.48450        4.0316096E-18
   69.64600        4.0306596E-18
   69.80750        4.0292543E-18
   69.96900        4.0275949E-18
   70.13050        4.0260837E-18
   70.29200        4.0251432E-18
   70.45350        4.0250245E-18
   70.61500        4.0256759E-18
   70.77650        4.0267049E-18
   70.93800        4.0275383E-18
   71.09950        4.0277422E-18
   71.26100        4.0273422E-18
   71.42250        4.0268575E-18
   71.58400        4.0269427E-18
   71.74550        4.0278505E-18
   71.90700        4.0291459E-18
   72.06850        4.0299636E-18
   72.23000        4.0296745E-18
   72.39150        4.0284316E-18
   72.55300        4.0271222E-18
   72.71450        4.0267194E-18
   72.87600        4.0275308E-18
   73.03750        4.0289730E-18
   73.19900        4.0300587E-18
   73.36050        4.0302138E-18
   73.52200        4.0297493E-18
   73.68350        4.0296091E-18
   73.84500        4.0306104E-18
   74.00650        4.0328066E-18
   74.16800        4.0354593E-18
   74.32950        4.0375989E-18
   74.49100        4.0386961E-18
   74.65250        4.0389558E-18
   74.81400        4.0390559E-18
   74.97550        4.0396044E-18
   75.13700        4.0406888E-18
   75.29850        4.0417956E-18
   75.46000        4.0420962E-18
   75.62150        4.0409121E-18
   75.78300        4.0381138E-18
   75.94450        4.0342450E-18
   76.10600        4.0302762E-18
   76.26750        4.0270829E-18
   76.42900        4.0249293E-18
   76.59050        4.0233118E-18
   76.75200        4.0213505E-18
   76.91350        4.0185208E-18
   77.07500        4.0151955E-18
   77.23650        4.0125287E-18
   77.39800        4.0116543E-18
   77.55950        4.0128033E-18
   77.72100        4.0150412E-18
   77.88250        4.0169094E-18
   78.04400        4.0175070E-18
   78.20550        4.0171745E-18
   78.36700        4.0172109E-18
   78.52850        4.0188446E-18
   78.69000        4.0222464E-18
   78.85150        4.0263637E-18
   79.01300        4.0296823E-18
   79.17450        4.0313094E-18
   79.33600        4.0315509E-18
   79.49750        4.0315898E-18
   79.65900        4.0325448E-18
   79.82050        4.0346475E-18
   79.98200        4.0370881E-18
   80.14350        4.0385948E-18
   80.30500        4.0382937E-18
   80.46650        4.0362820E-18
   80.62800        4.0335750E-18
   80.78950        4.0314847E-18
   80.95100        4.0308098E-18
   81.11250        4.0313288E-18
   81.27400        4.0319347E-18
   81.43550        4.0313644E-18
   81.59700        4.0290958E-18
   81.75850        4.0258140E-18
   81.92000        4.0230678E-18
   82.08150        4.0222633E-18
   82.24300        4.0236679E-18
   82.40450        4.0261469E-18
   82.56600        4.0278952E-18
   82.72750        4.0277070E-18
   82.88900        4.0258488E-18
   83.05050        4.0238846E-18
   83.21200        4.0235388E-18
   83.37350        4.0254281E-18
   83.53500        4.0286033E-18
   83.69650        4.0312325E-18
   83.85800        4.0318950E-18
   84.01950        4.0305356E-18
   84.18100        4.0284031E-18
   84.34250        4.0270829E-18
   84.50400        4.0273612E-18
   84.66550        4.0287278E-18
   84.82700        4.0298163E-18
   84.98850        4.0294073E-18
   85.15000        4.0272661E-18
   85.31150        4.0242759E-18
   85.47300        4.0218262E-18
   85.63450        4.0209167E-18
   85.79600        4.0215677E-18
   85.95750        4.0228928E-18
   86.11900        4.0237473E-18
   86.28050        4.0235240E-18
   86.44200        4.0225615E-18
   86.60350        4.0218899E-18
   86.76500        4.0224648E-18
   86.92650        4.0244181E-18
   87.08800        4.0268579E-18
   87.24950        4.0284246E-18
   87.41100        4.0282257E-18
   87.57250        4.0264973E-18
   87.73400        4.0244545E-18
   87.89550        4.0234053E-18
   88.05700        4.0237456E-18
   88.21850        4.0246117E-18
   88.38000        4.0244876E-18
   88.54150        4.0223667E-18
   88.70300        4.0185985E-18
   88.86450        4.0147538E-18
   89.02600        4.0125820E-18
   89.18750        4.0128124E-18
   89.34900        4.0146768E-18
   89.51050        4.0165078E-18
   89.67200        4.0169532E-18
   89.83350        4.0159300E-18
   89.99500        4.0146487E-18
   90.15650        4.0147273E-18
   90.31800        4.0170447E-18
   90.47950        4.0211334E-18
   90.64100        4.0254918E-18
   90.80250        4.0285507E-18
   90.96400        4.0296331E-18
   91.12550        4.0292981E-18
   91.28700        4.0288870E-18
   91.44850        4.0296013E-18
   91.61000        4.0317085E-18
   91.77150        4.0343596E-18
   91.93300        4.0361364E-18
   92.09450        4.0359685E-18
   92.25600        4.0338513E-18
   92.41750        4.0308797E-18
   92.57900        4.0285590E-18
   92.74050        4.0278294E-18
   92.90200        4.0284734E-18
   93.06350        4.0293208E-18
   93.22500        4.0291136E-18
   93.38650        4.0274262E-18
   93.54800        4.0249620E-18
   93.70950        4.0230272E-18
   93.87100        4.0225706E-18
   94.03250        4.0235091E-18
   94.19400        4.0248276E-18
   94.35550        4.0253516E-18
   94.51700        4.0245910E-18
   94.67850        4.0230417E-18
   94.84000        4.0217397E-18
   95.00150        4.0214593E-18
   95.16300        4.0221438E-18
   95.32450        4.0229619E-18
   95.48600        4.0228928E-18
   95.64750        4.0214076E-18
   95.80900        4.0187859E-18
   95.97050        4.0159102E-18
   96.13200        4.0136908E-18
   96.29350        4.0125171E-18
   96.45500        4.0120592E-18
   96.61650        4.0115319E-18
   96.77800        4.0102572E-18
   96.93950        4.0081740E-18
   97.10100        4.0059658E-18
   97.26250        4.0046895E-18
   97.42400        4.0051134E-18
   97.58550        4.0071805E-18
   97.74700        4.0099921E-18
   97.90850        4.0123632E-18
   98.07000        4.0136181E-18
   98.23150        4.0140606E-18
   98.39300        4.0147616E-18
   98.55450        4.0167800E-18
   98.71600        4.0203757E-18
   98.87750        4.0247693E-18
   99.03900        4.0286194E-18
   99.20050        4.0308908E-18
   99.36200        4.0314876E-18
   99.52350        4.0312374E-18
   99.68500        4.0312610E-18
   99.84650        4.0321804E-18
   100.0080        4.0337132E-18
   100.1695        4.0348952E-18
   100.3310        4.0347426E-18
   100.4925        4.0329092E-18
   100.6540        4.0299148E-18
   100.8155        4.0268356E-18
   100.9770        4.0246733E-18
   101.1385        4.0237982E-18
   101.3000        4.0237870E-18
   101.4615        4.0237659E-18
   101.6230        4.0230297E-18
   101.7845        4.0215416E-18
   101.9460        4.0199683E-18
   102.1075        4.0192057E-18
   102.2690        4.0196904E-18
   102.4305        4.0209932E-18
   102.5920        4.0220106E-18
   102.7535        4.0216765E-18
   102.9150        4.0197206E-18
   103.0765        4.0169185E-18
   103.2380        4.0146082E-18
   103.3995        4.0137732E-18
   103.5610        4.0143534E-18
   103.7225        4.0153121E-18
   103.8840        4.0154292E-18
   104.0455        4.0142542E-18
   104.2070        4.0124890E-18
   104.3685        4.0115050E-18
   104.5300        4.0123281E-18
   104.6915        4.0148427E-18
   104.8530        4.0178081E-18
   105.0145        4.0196949E-18
   105.1760        4.0197462E-18
   105.3375        4.0185034E-18
   105.4990        4.0174309E-18
   105.6605        4.0178995E-18
   105.8220        4.0202413E-18
   105.9835        4.0235045E-18
   106.1450        4.0260700E-18
   106.3065        4.0266854E-18
   106.4680        4.0252449E-18
   106.6295        4.0228109E-18
   106.7910        4.0208840E-18
   106.9525        4.0203844E-18
   107.1140        4.0210242E-18
   107.2755        4.0214990E-18
   107.4370        4.0203927E-18
   107.5985        4.0172014E-18
   107.7600        4.0127867E-18
   107.9215        4.0088837E-18
   108.0830        4.0069849E-18
   108.2445        4.0073497E-18
   108.4060        4.0088634E-18
   108.5675        4.0098647E-18
   108.7290        4.0093692E-18
   108.8905        4.0077906E-18
   109.0520        4.0066110E-18
   109.2135        4.0072455E-18
   109.3750        4.0099549E-18
   109.5365        4.0136313E-18
   109.6980        4.0166203E-18
   109.8595        4.0179252E-18
   110.0210        4.0179103E-18
   110.1825        4.0179790E-18
   110.3440        4.0194989E-18
   110.5055        4.0227907E-18
   110.6670        4.0268852E-18
   110.8285        4.0301989E-18
   110.9900        4.0316006E-18
   111.1515        4.0311195E-18
   111.3130        4.0298238E-18
   111.4745        4.0289904E-18
   111.6360        4.0291674E-18
   111.7975        4.0297692E-18
   111.9590        4.0294780E-18
   112.1205        4.0271929E-18
   112.2820        4.0228908E-18
   112.4435        4.0178102E-18
   112.6050        4.0137802E-18
   112.7665        4.0121014E-18
   112.9280        4.0127111E-18
   113.0895        4.0142413E-18
   113.2510        4.0149784E-18
   113.4125        4.0140788E-18
   113.5740        4.0121672E-18
   113.7355        4.0108561E-18
   113.8970        4.0115253E-18
   114.0585        4.0142393E-18
   114.2200        4.0176257E-18
   114.3815        4.0198074E-18
   114.5430        4.0197102E-18
   114.7045        4.0177854E-18
   114.8660        4.0156248E-18
   115.0275        4.0147860E-18
   115.1890        4.0156926E-18
   115.3505        4.0174057E-18
   115.5120        4.0183690E-18
   115.6735        4.0175343E-18
   115.8350        4.0150466E-18
   115.9965        4.0120605E-18
   116.1580        4.0099024E-18
   116.3195        4.0091951E-18
   116.4810        4.0095479E-18
   116.6425        4.0099586E-18
   116.8040        4.0096066E-18
   116.9655        4.0084722E-18
   117.1270        4.0073766E-18
   117.2885        4.0074283E-18
   117.4500        4.0092584E-18
   117.6115        4.0125526E-18
   117.7730        4.0161960E-18
   117.9345        4.0189414E-18
   118.0960        4.0201817E-18
   118.2575        4.0202872E-18
   118.4190        4.0202578E-18
   118.5805        4.0209125E-18
   118.7420        4.0221967E-18