  -27.90000        9.9052877E-18
  -27.73850        9.9331074E-18
  -27.57700        9.9732736E-18
  -27.41550        1.0005588E-17
  -27.25400        1.0018221E-17
  -27.09250        1.0014985E-17
  -26.93100        1.0012009E-17
  -26.76950        1.0026116E-17
  -26.60800        1.0062842E-17
  -26.44650        1.0112212E-17
  -26.28500        1.0155147E-17
  -26.12350        1.0176141E-17
  -25.96200        1.0173653E-17
  -25.80050        1.0161173E-17
  -25.63900        1.0158244E-17
  -25.47750        1.0177476E-17
  -25.31600        1.0216298E-17
  -25.15450        1.0258943E-17
  -24.99300        1.0287271E-17
  -24.83150        1.0293079E-17
  -24.67000        1.0283563E-17
  -24.50850        1.0276310E-17
  -24.34700        1.0287244E-17
  -24.18550        1.0319759E-17
  -24.02400        1.0362408E-17
  -23.86250        1.0396700E-17
  -23.70100        1.0409686E-17
  -23.53950        1.0402765E-17
  -23.37800        1.0390742E-17
  -23.21650        1.0391770E-17
  -23.05500        1.0415023E-17
  -22.89350        1.0454450E-17
  -22.73200        1.0492875E-17
  -22.57050        1.0513619E-17
  -22.40900        1.0511786E-17
  -22.24750        1.0497543E-17
  -22.08600        1.0489178E-17
  -21.92450        1.0500685E-17
  -21.76300        1.0532291E-17
  -21.60150        1.0570381E-17
  -21.44000        1.0596879E-17
  -21.27850        1.0601691E-17
  -21.11700        1.0589754E-17
  -20.95550        1.0577842E-17
  -20.79400        1.0583238E-17
  -20.63250        1.0611941E-17
  -20.47100        1.0654390E-17
  -20.30950        1.0691680E-17
  -20.14800        1.0708112E-17
  -19.98650        1.0701614E-17
  -19.82500        1.0685024E-17
  -19.66350        1.0677328E-17
  -19.50200        1.0690807E-17
  -19.34050        1.0722770E-17
  -19.17900        1.0757497E-17
  -19.01750        1.0777083E-17
  -18.85600        1.0773827E-17
  -18.69450        1.0755757E-17
  -18.53300        1.0741484E-17
  -18.37150        1.0747822E-17
  -18.21000        1.0778481E-17
  -18.04850        1.0821460E-17
  -17.88700        1.0856917E-17
  -17.72550        1.0870231E-17
  -17.56400        1.0861509E-17
  -17.40250        1.0845178E-17
  -17.24100        1.0840007E-17
  -17.07950        1.0856332E-17
  -16.91800        1.0889121E-17
  -16.75650        1.0921527E-17
  -16.59500        1.0936512E-17
  -16.43350        1.0928655E-17
  -16.27200        1.0908147E-17
  -16.11050        1.0894244E-17
  -15.94900        1.0902575E-17
  -15.78750        1.0934802E-17
  -15.62600        1.0977612E-17
  -15.46450        1.1011638E-17
  -15.30300        1.1024309E-17
  -15.14150        1.1017953E-17
  -14.98000        1.1007727E-17
  -14.81850        1.1010884E-17
  -14.65700        1.1034698E-17
  -14.49550        1.1071277E-17
  -14.33400        1.1102800E-17
  -14.17250        1.1113599E-17
  -14.01100        1.1100859E-17
  -13.84950        1.1076675E-17
  -13.68800        1.1060050E-17
  -13.52650        1.1064269E-17
  -13.36500        1.1088206E-17
  -13.20350        1.1117436E-17
  -13.04200        1.1134357E-17
  -12.88050        1.1130389E-17
  -12.71900        1.1111983E-17
  -12.55750        1.1096335E-17
  -12.39600        1.1099771E-17
  -12.23450        1.1126681E-17
  -12.07300        1.1166536E-17
  -11.91150        1.1201020E-17
  -11.75000        1.1216419E-17
  -11.58850        1.1212860E-17
  -11.42700        1.1204102E-17
  -11.26550        1.1207984E-17
  -11.10400        1.1234009E-17
  -10.94250        1.1276488E-17
  -10.78100        1.1317941E-17
  -10.61950        1.1340536E-17
  -10.45800        1.1337878E-17
  -10.29650        1.1319178E-17
  -10.13500        1.1302965E-17
  -9.973500        1.1304596E-17
  -9.812000        1.1325975E-17
  -9.650500        1.1354488E-17
  -9.489000        1.1371875E-17
  -9.327500        1.1367031E-17
  -9.166000        1.1344024E-17
  -9.004500        1.1319820E-17
  -8.843000        1.1313166E-17
  -8.681500        1.1332093E-17
  -8.520000        1.1368480E-17
  -8.358500        1.1403365E-17
  -8.197000        1.1419476E-17
  -8.035500        1.1412573E-17
  -7.874000        1.1393982E-17
  -7.712500        1.1382679E-17
  -7.551000        1.1392295E-17
  -7.389500        1.1421853E-17
  -7.228000        1.1456457E-17
  -7.066500        1.1477494E-17
  -6.905000        1.1475391E-17
  -6.743500        1.1456326E-17
  -6.582000        1.1438301E-17
  -6.420500        1.1439225E-17
  -6.259000        1.1464976E-17
  -6.097500        1.1505495E-17
  -5.936000        1.1541520E-17
  -5.774500        1.1557405E-17
  -5.613000        1.1551407E-17
  -5.451500        1.1536519E-17
  -5.290000        1.1531359E-17
  -5.128500        1.1547332E-17
  -4.967000        1.1580787E-17
  -4.805500        1.1615501E-17
  -4.644000        1.1633763E-17
  -4.482500        1.1628537E-17
  -4.321000        1.1608392E-17
  -4.159500        1.1591846E-17
  -3.998000        1.1594939E-17
  -3.836500        1.1620479E-17
  -3.675000        1.1656244E-17
  -3.513500        1.1683331E-17
  -3.352000        1.1688988E-17
  -3.190500        1.1675176E-17
  -3.029000        1.1657088E-17
  -2.867500        1.1652656E-17
  -2.706000        1.1670219E-17
  -2.544500        1.1702768E-17
  -2.383000        1.1732693E-17
  -2.221500        1.1743802E-17
  -2.060000        1.1732435E-17
  -1.898500        1.1710070E-17
  -1.737000        1.1695644E-17
  -1.575500        1.1702722E-17
  -1.414000        1.1730252E-17
  -1.252500        1.1763209E-17
  -1.091000        1.1782725E-17
 -0.9295000        1.1778908E-17
 -0.7680000        1.1757625E-17
 -0.6065000        1.1736632E-17
 -0.4450000        1.1733621E-17
 -0.2835000        1.1754267E-17
 -0.1220000        1.1788417E-17
  3.9500002E-02    1.1817050E-17
  0.2010000        1.1825315E-17
  0.3625000        1.1812785E-17
  0.5240000        1.1793887E-17
  0.6855000        1.1788144E-17
  0.8470000        1.1806787E-17
   1.008500        1.1844852E-17
   1.170000        1.1884168E-17
   1.331500        1.1905292E-17
   1.493000        1.1900374E-17
   1.654500        1.1878239E-17
   1.816000        1.1858299E-17
   1.977500        1.1857409E-17
   2.139000        1.1878602E-17
   2.300500        1.1909317E-17
   2.462000        1.1930282E-17
   2.623500        1.1928991E-17
   2.785000        1.1908605E-17
   2.946500        1.1886206E-17
   3.108000        1.1881551E-17
   3.269500        1.1903909E-17
   3.431000        1.1945833E-17
   3.592500        1.1988074E-17
   3.754000        1.2012299E-17
   3.915500        1.2013056E-17
   4.077000        1.2000941E-17
   4.238500        1.1994933E-17
   4.400000        1.2009111E-17
   4.561500        1.2042826E-17
   4.723000        1.2080984E-17
   4.884500        1.2104246E-17
   5.046000        1.2102219E-17
   5.207500        1.2080640E-17
   5.369000        1.2057662E-17
   5.530500        1.2051712E-17
   5.692000        1.2069170E-17
   5.853500        1.2100226E-17
   6.015000        1.2125728E-17
   6.176500        1.2130327E-17
   6.338000        1.2112993E-17
   6.499500        1.2087708E-17
   6.661000        1.2073909E-17
   6.822500        1.2083219E-17
   6.984000        1.2111547E-17
   7.145500        1.2141955E-17
   7.307000        1.2156337E-17
   7.468500        1.2147903E-17
   7.630000        1.2125931E-17
   7.791500        1.2109513E-17
   7.953000        1.2114532E-17
   8.114500        1.2142741E-17
   8.276000        1.2180411E-17
   8.437500        1.2207499E-17
   8.599000        1.2211148E-17
   8.760500        1.2194341E-17
   8.922000        1.2173820E-17
   9.083500        1.2168656E-17
   9.245000        1.2187246E-17
   9.406500        1.2221585E-17
   9.568000        1.2252751E-17
   9.729500        1.2263897E-17
   9.891000        1.2251896E-17
   10.05250        1.2229658E-17
   10.21400        1.2217471E-17
   10.37550        1.2229186E-17
   10.53700        1.2262645E-17
   10.69850        1.2300909E-17
   10.86000        1.2323528E-17
   11.02150        1.2320217E-17
   11.18300        1.2297696E-17
   11.34450        1.2275048E-17
   11.50600        1.2270767E-17
   11.66750        1.2290287E-17
   11.82900        1.2322475E-17
   11.99050        1.2347423E-17
   12.15200        1.2350223E-17
   12.31350        1.2331336E-17
   12.47500        1.2306486E-17
   12.63650        1.2296132E-17
   12.79800        1.2311661E-17
   12.95950        1.2347633E-17
   13.12100        1.2385336E-17
   13.28250        1.2405235E-17
   13.44400        1.2399905E-17
   13.60550        1.2378746E-17
   13.76700        1.2361356E-17
   13.92850        1.2364094E-17
   14.09000        1.2388973E-17
   14.25150        1.2422437E-17
   14.41300        1.2444786E-17
   14.57450        1.2443845E-17
   14.73600        1.2423532E-17
   14.89750        1.2401447E-17
   15.05900        1.2397106E-17
   15.22050        1.2418779E-17
   15.38200        1.2457909E-17
   15.54350        1.2494906E-17
   15.70500        1.2512396E-17
   15.86650        1.2506864E-17
   16.02800        1.2490783E-17
   16.18950        1.2483758E-17
   16.35100        1.2498831E-17
   16.51250        1.2533346E-17
   16.67400        1.2570664E-17
   16.83550        1.2591513E-17
   16.99700        1.2587197E-17
   17.15850        1.2565566E-17
   17.32000        1.2545693E-17
   17.48150        1.2544889E-17
   17.64300        1.2566957E-17
   17.80450        1.2599699E-17
   17.96600        1.2623335E-17
   18.12750        1.2624083E-17
   18.28900        1.2603637E-17
   18.45050        1.2578098E-17
   18.61200        1.2567128E-17
   18.77350        1.2580688E-17
   18.93500        1.2612374E-17
   19.09650        1.2643866E-17
   19.25800        1.2657462E-17
   19.41950        1.2648198E-17
   19.58100        1.2627270E-17
   19.74250        1.2614405E-17
   19.90400        1.2624318E-17
   20.06550        1.2656474E-17
   20.22700        1.2695138E-17
   20.38850        1.2719768E-17
   20.55000        1.2718717E-17
   20.71150        1.2696971E-17
   20.87300        1.2672668E-17
   21.03450        1.2664747E-17
   21.19600        1.2680153E-17
   21.35750        1.2709285E-17
   21.51900        1.2732789E-17
   21.68050        1.2735015E-17
   21.84200        1.2714969E-17
   22.00350        1.2687252E-17
   22.16500        1.2672366E-17
   22.32650        1.2682944E-17
   22.48800        1.2715247E-17
   22.64950        1.2751690E-17
   22.81100        1.2772644E-17
   22.97250        1.2769547E-17
   23.13400        1.2750448E-17
   23.29550        1.2734303E-17
   23.45700        1.2737929E-17
   23.61850        1.2764523E-17
   23.78000        1.2801522E-17
   23.94150        1.2829230E-17
   24.10300        1.2834318E-17
   24.26450        1.2819002E-17
   24.42600        1.2799621E-17
   24.58750        1.2795577E-17
   24.74900        1.2816150E-17
   24.91050        1.2854128E-17
   25.07200        1.2890617E-17
   25.23350        1.2907763E-17
   25.39500        1.2900690E-17
   25.55650        1.2880578E-17
   25.71800        1.2866795E-17
   25.87950        1.2873512E-17
   26.04100        1.2899971E-17
   26.20250        1.2931063E-17
   26.36400        1.2947795E-17
   26.52550        1.2940452E-17
   26.68700        1.2915457E-17
   26.84850        1.2891190E-17
   27.01000        1.2885645E-17
   27.17150        1.2904323E-17
   27.33300        1.2936609E-17
   27.49450        1.2963072E-17
   27.65600        1.2968715E-17
   27.81750        1.2953139E-17
   27.97900        1.2930748E-17
   28.14050        1.2920876E-17
   28.30200        1.2934553E-17
   28.46350        1.2966909E-17
   28.62500        1.3000420E-17
   28.78650        1.3016786E-17
   28.94800        1.3009405E-17
   29.10950        1.2987927E-17
   29.27100        1.2971761E-17
   29.43250        1.2976867E-17
   29.59400        1.3004796E-17
   29.75550        1.3041468E-17
   29.91700        1.3066562E-17
   30.07850        1.3067241E-17
   30.24000        1.3046879E-17
   30.40150        1.3022829E-17
   30.56300        1.3014679E-17
   30.72450        1.3030965E-17
   30.88600        1.3063409E-17
   31.04750        1.3092635E-17
   31.20900        1.3101514E-17
   31.37050        1.3087006E-17
   31.53200        1.3062404E-17
   31.69350        1.3048346E-17
   31.85500        1.3058707E-17
   32.01650        1.3090980E-17
   32.17800        1.3127754E-17
   32.33950        1.3148343E-17
   32.50100        1.3142680E-17
   32.66250        1.3118007E-17
   32.82400        1.3093832E-17
   32.98550        1.3088597E-17
   33.14700        1.3107176E-17
   33.30850        1.3137735E-17
   33.47000        1.3160077E-17
   33.63150        1.3159750E-17
   33.79300        1.3138256E-17
   33.95450        1.3112335E-17
   34.11600        1.3102769E-17
   34.27750        1.3120310E-17
   34.43900        1.3158331E-17
   34.60050        1.3197265E-17
   34.76200        1.3217817E-17
   34.92350        1.3213947E-17
   35.08500        1.3196777E-17
   35.24650        1.3186699E-17
   35.40800        1.3199137E-17
   35.56950        1.3233710E-17
   35.73100        1.3274312E-17
   35.89250        1.3300098E-17
   36.05400        1.3299847E-17
   36.21550        1.3279769E-17
   36.37700        1.3259318E-17
   36.53850        1.3257842E-17
   36.70000        1.3281257E-17
   36.86150        1.3317930E-17
   37.02300        1.3346652E-17
   37.18450        1.3351205E-17
   37.34600        1.3331514E-17
   37.50750        1.3303680E-17
   37.66900        1.3288890E-17
   37.83050        1.3298840E-17
   37.99200        1.3327718E-17
   38.15350        1.3356277E-17
   38.31500        1.3365189E-17
   38.47650        1.3348510E-17
   38.63800        1.3317966E-17
   38.79950        1.3295092E-17
   38.96100        1.3296577E-17
   39.12250        1.3322834E-17
   39.28400        1.3357667E-17
   39.44550        1.3379301E-17
   39.60700        1.3375262E-17
   39.76850        1.3350892E-17
   39.93000        1.3325641E-17
   40.09150        1.3319651E-17
   40.25300        1.3339851E-17
   40.41450        1.3375154E-17
   40.57600        1.3404090E-17
   40.73750        1.3409624E-17
   40.89900        1.3390942E-17
   41.06050        1.3364052E-17
   41.22200        1.3350761E-17
   41.38350        1.3363640E-17
   41.54500        1.3397348E-17
   41.70650        1.3432307E-17
   41.86800        1.3448139E-17
   42.02950        1.3437593E-17
   42.19100        1.3411373E-17
   42.35250        1.3390635E-17
   42.51400        1.3392410E-17
   42.67550        1.3418057E-17
   42.83700        1.3452620E-17
   42.99850        1.3475430E-17
   43.16000        1.3474535E-17
   43.32150        1.3454994E-17
   43.48300        1.3435363E-17
   43.64450        1.3434876E-17
   43.80600        1.3460194E-17
   43.96750        1.3500796E-17
   44.12900        1.3536125E-17
   44.29050        1.3549502E-17
   44.45200        1.3539260E-17
   44.61350        1.3519488E-17
   44.77500        1.3509995E-17
   44.93650        1.3522481E-17
   45.09800        1.3552458E-17
   45.25950        1.3582479E-17
   45.42100        1.3594378E-17
   45.58250        1.3582010E-17
   45.74400        1.3555678E-17
   45.90550        1.3535178E-17
   46.06700        1.3536297E-17
   46.22850        1.3560091E-17
   46.39000        1.3592319E-17
   46.55150        1.3613365E-17
   46.71300        1.3611748E-17
   46.87450        1.3591894E-17
   47.03600        1.3570843E-17
   47.19750        1.3566307E-17
   47.35900        1.3584358E-17
   47.52050        1.3615269E-17
   47.68200        1.3640306E-17
   47.84350        1.3644684E-17
   48.00500        1.3627744E-17
   48.16650        1.3603357E-17
   48.32800        1.3590365E-17
   48.48950        1.3599700E-17
   48.65100        1.3627012E-17
   48.81250        1.3655795E-17
   48.97400        1.3668776E-17
   49.13550        1.3659707E-17
   49.29700        1.3637498E-17
   49.45850        1.3619971E-17
   49.62000        1.3621615E-17
   49.78150        1.3643783E-17
   49.94300        1.3673985E-17
   50.10450        1.3694664E-17
   50.26600        1.3695308E-17
   50.42750        1.3679589E-17
   50.58900        1.3662674E-17
   50.75050        1.3660679E-17
   50.91200        1.3679579E-17
   51.07350        1.3711173E-17
   51.23500        1.3738762E-17
   51.39650        1.3748513E-17
   51.55800        1.3738659E-17
   51.71950        1.3720305E-17
   51.88100        1.3709487E-17
   52.04250        1.3716096E-17
   52.20400        1.3737309E-17
   52.36550        1.3759886E-17
   52.52700        1.3769545E-17
   52.68850        1.3760848E-17
   52.85000        1.3740852E-17
   53.01150        1.3724179E-17
   53.17300        1.3723055E-17
   53.33450        1.3739198E-17
   53.49600        1.3762956E-17
   53.65750        1.3780118E-17
   53.81900        1.3781574E-17
   53.98050        1.3769293E-17
   54.14200        1.3754682E-17
   54.30350        1.3750630E-17
   54.46500        1.3762754E-17
   54.62650        1.3785754E-17
   54.78800        1.3807238E-17
   54.94950        1.3816291E-17
   55.11100        1.3810918E-17
   55.27250        1.3799318E-17
   55.43400        1.3794238E-17
   55.59550        1.3804286E-17
   55.75700        1.3828114E-17
   55.91850        1.3855370E-17
   56.08000        1.3873676E-17
   56.24150        1.3876856E-17
   56.40300        1.3868806E-17
   56.56450        1.3860501E-17
   56.72600        1.3862275E-17
   56.88750        1.3876719E-17
   57.04900        1.3897025E-17
   57.21050        1.3911773E-17
   57.37200        1.3912819E-17
   57.53350        1.3900856E-17
   57.69500        1.3884974E-17
   57.85650        1.3876607E-17
   58.01800        1.3882035E-17
   58.17950        1.3898479E-17
   58.34100        1.3916247E-17
   58.50250        1.3925372E-17
   58.66400        1.3922217E-17
   58.82550        1.3911691E-17
   58.98700        1.3903733E-17
   59.14850        1.3906565E-17
   59.31000        1.3921188E-17
   59.47150        1.3940754E-17
   59.63300        1.3955129E-17
   59.79450        1.3957578E-17
   59.95600        1.3949147E-17
   60.11750        1.3937873E-17
   60.27900        1.3933409E-17
   60.44050        1.3940624E-17
   60.60200        1.3956431E-17
   60.76350        1.3971916E-17
   60.92500        1.3978275E-17
   61.08650        1.3972631E-17
   61.24800        1.3959861E-17
   61.40950        1.3949303E-17
   61.57100        1.3948560E-17
   61.73250        1.3958570E-17
   61.89400        1.3973182E-17
   62.05550        1.3983444E-17
   62.21700        1.3983698E-17
   62.37850        1.3975407E-17
   62.54000        1.3966199E-17
   62.70150        1.3964829E-17
   62.86300        1.3975380E-17
   63.02450        1.3994534E-17
   63.18600        1.4013664E-17
   63.34750        1.4024391E-17
   63.50900        1.4023949E-17
   63.67050        1.4016863E-17
   63.83200        1.4011839E-17
   63.99350        1.4015919E-17
   64.15500        1.4029761E-17
   64.31650        1.4047231E-17
   64.47800        1.4059567E-17
   64.63950        1.4061417E-17
   64.80100        1.4054634E-17
   64.96250        1.4047247E-17
   65.12400        1.4048175E-17
   65.28550        1.4061199E-17
   65.44700        1.4082292E-17
   65.60850        1.4102167E-17
   65.77000        1.4112383E-17
   65.93150        1.4110924E-17
   66.09300        1.4103438E-17
   66.25450        1.4099302E-17
   66.41600        1.4105168E-17
   66.57750        1.4120359E-17
   66.73900        1.4137274E-17
   66.90050        1.4146545E-17
   67.06200        1.4143477E-17
   67.22350        1.4131398E-17
   67.38500        1.4119629E-17
   67.54650        1.4117329E-17
   67.70800        1.4127360E-17
   67.86950        1.4144284E-17
   68.03100        1.4157899E-17
   68.19250        1.4160045E-17
   68.35400        1.4150140E-17
   68.51550        1.4135701E-17
   68.67700        1.4127380E-17
   68.83850        1.4131780E-17
   69.00000        1.4146888E-17
   69.16150        1.4163311E-17
   69.32300        1.4170643E-17
   69.48450        1.4164710E-17
   69.64600        1.4150738E-17
   69.80750        1.4140092E-17
   69.96900        1.4142702E-17
   70.13050        1.4160210E-17
   70.29200        1.4184640E-17
   70.45350        1.4203618E-17
   70.61500        1.4208710E-17
   70.77650        1.4201207E-17
   70.93800        1.4191293E-17
   71.09950        1.4191056E-17
   71.26100        1.4206071E-17
   71.42250        1.4231353E-17
   71.58400        1.4254552E-17
   71.74550        1.4264296E-17
   71.90700        1.4258015E-17
   72.06850        1.4243792E-17
   72.23000        1.4234900E-17
   72.39150        1.4240669E-17
   72.55300        1.4259925E-17
   72.71450        1.4281632E-17
   72.87600        1.4292356E-17
   73.03750        1.4285517E-17
   73.19900        1.4266048E-17
   73.36050        1.4247170E-17
   73.52200        1.4241413E-17
   73.68350        1.4252075E-17
   73.84500        1.4271003E-17
   74.00650        1.4284327E-17
   74.16800        1.4282221E-17
   74.32950        1.4265921E-17
   74.49100        1.4247069E-17
   74.65250        1.4239762E-17
   74.81400        1.4250730E-17
   74.97550        1.4274505E-17
   75.13700        1.4296991E-17
   75.29850        1.4305032E-17
   75.46000        1.4295398E-17
   75.62150        1.4276969E-17
   75.78300        1.4264503E-17
   75.94450        1.4268338E-17
   76.10600        1.4287158E-17
   76.26750        1.4308881E-17
   76.42900        1.4319152E-17
   76.59050        1.4311528E-17
   76.75200        1.4292252E-17
   76.91350        1.4276194E-17
   77.07500        1.4276697E-17
   77.23650        1.4296348E-17
   77.39800        1.4325089E-17
   77.55950        1.4347062E-17
   77.72100        1.4351479E-17
   77.88250        1.4340021E-17
   78.04400        1.4325599E-17
   78.20550        1.4323294E-17
   78.36700        1.4339760E-17
   78.52850        1.4368437E-17
   78.69000        1.4393972E-17
   78.85150        1.4402842E-17
   79.01300        1.4392840E-17
   79.17450        1.4374776E-17
   79.33600        1.4365159E-17
   79.49750        1.4374839E-17
   79.65900        1.4401430E-17
   79.82050        1.4430864E-17
   79.98200        1.4447049E-17
   80.14350        1.4442990E-17
   80.30500        1.4425659E-17
   80.46650        1.4411164E-17
   80.62800        1.4413528E-17
   80.78950        1.4434896E-17
   80.95100        1.4463991E-17
   81.11250        1.4483944E-17
   81.27400        1.4484078E-17
   81.43550        1.4467386E-17
   81.59700        1.4448496E-17
   81.75850        1.4443503E-17
   81.92000        1.4458750E-17
   82.08150        1.4486386E-17
   82.24300        1.4509779E-17
   82.40450        1.4514987E-17
   82.56600        1.4500329E-17
   82.72750        1.4477421E-17
   82.88900        1.4463031E-17
   83.05050        1.4467455E-17
   83.21200        1.4487484E-17
   83.37350        1.4508764E-17
   83.53500        1.4515891E-17
   83.69650        1.4503191E-17
   83.85800        1.4478736E-17
   84.01950        1.4458816E-17
   84.18100        1.4456710E-17
   84.34250        1.4473513E-17
   84.50400        1.4497384E-17
   84.66550        1.4511718E-17
   84.82700        1.4506620E-17
   84.98850        1.4485728E-17
   85.15000        1.4463672E-17
   85.31150        1.4455937E-17
   85.47300        1.4468162E-17
   85.63450        1.4492332E-17
   85.79600        1.4512508E-17
   85.95750        1.4516075E-17
   86.11900        1.4502643E-17
   86.28050        1.4484384E-17
   86.44200        1.4477565E-17
   86.60350        1.4491184E-17
   86.76500        1.4520633E-17
   86.92650        1.4550754E-17
   87.08800        1.4566166E-17
   87.24950        1.4561649E-17
   87.41100        1.4545473E-17
   87.57250        1.4533376E-17
   87.73400        1.4537494E-17
   87.89550        1.4557882E-17
   88.05700        1.4582509E-17
   88.21850        1.4595676E-17
   88.38000        1.4589008E-17
   88.54150        1.4567420E-17
   88.70300        1.4545888E-17
   88.86450        1.4539294E-17
   89.02600        1.4552304E-17
   89.18750        1.4576277E-17
   89.34900        1.4595357E-17
   89.51050        1.4597499E-17
   89.67200        1.4582827E-17
   89.83350        1.4563492E-17
   89.99500        1.4555183E-17
   90.15650        1.4566161E-17
   90.31800        1.4591509E-17
   90.47950        1.4616536E-17
   90.64100        1.4626985E-17
   90.80250        1.4618907E-17
   90.96400        1.4601366E-17
   91.12550        1.4590098E-17
   91.28700        1.4596598E-17
   91.44850        1.4620182E-17
   91.61000        1.4648520E-17
   91.77150        1.4666184E-17
   91.93300        1.4665241E-17
   92.09450        1.4650601E-17
   92.25600        1.4636466E-17
   92.41750        1.4636446E-17
   92.57900        1.4654194E-17
   92.74050        1.4680960E-17
   92.90200        1.4701726E-17
   93.06350        1.4705579E-17
   93.22500        1.4693227E-17
   93.38650        1.4676465E-17
   93.54800        1.4670027E-17
   93.70950        1.4681429E-17
   93.87100        1.4705796E-17
   94.03250        1.4729175E-17
   94.19400        1.4738071E-17
   94.35550        1.4728619E-17
   94.51700        1.4709144E-17
   94.67850        1.4694344E-17
   94.84000        1.4695143E-17
   95.00150        1.4711212E-17
   95.16300        1.4731326E-17
   95.32450        1.4741262E-17
   95.48600        1.4733809E-17
   95.64750        1.4713900E-17
   95.80900        1.4695319E-17
   95.97050        1.4691239E-17
   96.13200        1.4705170E-17
   96.29350        1.4728545E-17
   96.45500        1.4746610E-17
   96.61650        1.4748572E-17
   96.77800        1.4734921E-17
   96.93950        1.4716949E-17
   97.10100        1.4708802E-17
   97.26250        1.4717621E-17
   97.42400        1.4738623E-17
   97.58550        1.4758497E-17
   97.74700        1.4764752E-17
   97.90850        1.4754490E-17
   98.07000        1.4736530E-17
   98.23150        1.4725395E-17
   98.39300        1.4731303E-17
   98.55450        1.4753104E-17
   98.71600        1.4779021E-17
   98.87750        1.4794698E-17
   99.03900        1.4793000E-17
   99.20050        1.4778768E-17
   99.36200        1.4765260E-17
   99.52350        1.4764784E-17
   99.68500        1.4780040E-17
   99.84650        1.4802197E-17
   100.0080        1.4817051E-17
   100.1695        1.4814965E-17
   100.3310        1.4797662E-17
   100.4925        1.4777185E-17
   100.6540        1.4767684E-17
   100.8155        1.4775790E-17
   100.9770        1.4796185E-17
   101.1385        1.4815445E-17
   101.3000        1.4821421E-17
   101.4615        1.4811640E-17
   101.6230        1.4794943E-17
   101.7845        1.4785264E-17
   101.9460        1.4791937E-17
   102.1075        1.4813193E-17
   102.2690        1.4837362E-17
   102.4305        1.4850871E-17
   102.5920        1.4847533E-17
   102.7535        1.4832695E-17
   102.9150        1.4819425E-17
   103.0765        1.4819407E-17
   103.2380        1.4834816E-17
   103.3995        1.4856804E-17
   103.5610        1.4871606E-17
   103.7225        1.4870021E-17
   103.8840        1.4853752E-17
   104.0455        1.4834220E-17
   104.2070        1.4824698E-17
   104.3685        1.4831219E-17
   104.5300        1.4848579E-17
   104.6915        1.4864131E-17
   104.8530        1.4866757E-17
   105.0145        1.4854691E-17
   105.1760        1.4836823E-17
   105.3375        1.4826546E-17
   105.4990        1.4832513E-17
   105.6605        1.4852663E-17
   105.8220        1.4875665E-17
   105.9835        1.4888730E-17
   106.1450        1.4886324E-17
   106.3065        1.4873798E-17
   106.4680        1.4863455E-17
   106.6295        1.4865872E-17
   106.7910        1.4882526E-17
   106.9525        1.4904819E-17
   107.1140        1.4920133E-17
   107.2755        1.4920634E-17
   107.4370        1.4908749E-17
   107.5985        1.4895505E-17
   107.7600        1.4892935E-17
   107.9215        1.4905823E-17
   108.0830        1.4928484E-17
   108.2445        1.4948782E-17
   108.4060        1.4956506E-17
   108.5675        1.4950328E-17
   108.7290        1.4938520E-17
   108.8905        1.4933012E-17
   109.0520        1.4941008E-17
   109.2135        1.4959952E-17
   109.3750        1.4979313E-17
   109.5365        1.4987899E-17
   109.6980        1.4981597E-17
   109.8595        1.4966235E-17
   110.0210        1.4953592E-17
   110.1825        1.4953382E-17
   110.3440        1.4966690E-17
   110.5055        1.4985363E-17
   110.6670        1.4997699E-17
   110.8285        1.4996507E-17
   110.9900        1.4983975E-17
   111.1515        1.4970070E-17
   111.3130        1.4965568E-17
   111.4745        1.4974540E-17
   111.6360        1.4991464E-17
   111.7975        1.5004979E-17
   111.9590        1.5005693E-17
   112.1205        1.4992703E-17
   112.2820        1.4974284E-17
   112.4435        1.4962304E-17
   112.6050        1.4964165E-17
   112.7665        1.4977844E-17
   112.9280        1.4993426E-17
   113.0895        1.5000049E-17
   113.2510        1.4993439E-17
   113.4125        1.4978858E-17
   113.5740        1.4967398E-17
   113.7355        1.4968285E-17
   113.8970        1.4982454E-17
   114.0585        1.5001893E-17
   114.2200        1.5015125E-17
   114.3815        1.5015065E-17
   114.5430        1.5003784E-17
   114.7045        1.4990981E-17
   114.8660        1.4987224E-17
   115.0275        1.4996641E-17
   115.1890        1.5014087E-17
   115.3505        1.5028715E-17
   115.5120        1.5031428E-17
   115.6735        1.5021102E-17
   115.8350        1.5005276E-17
   115.9965        1.4994895E-17
   116.1580        1.4996783E-17
   116.3195        1.5009063E-17
   116.4810        1.5022680E-17
   116.6425        1.5027883E-17
   116.8040        1.5021155E-17
   116.9655        1.5007738E-17
   117.1270        1.4998047E-17
   117.2885        1.5000482E-17
   117.4500        1.5015672E-17
   117.6115        1.5036105E-17
   117.7730        1.5051324E-17
   117.9345        1.5055036E-17
   118.0960        1.5049186E-17
   118.2575        1.5042268E-17
   118.4190        1.5043148E-17
   118.5805        1.5054757E-17
   118.7420        1.5072003E-17