  -27.90000        9.6401804E-18
  -27.73850        9.6687157E-18
  -27.57700        9.7116033E-18
  -27.41550        9.7493898E-18
  -27.25400        9.7685894E-18
  -27.09250        9.7692032E-18
  -26.93100        9.7640424E-18
  -26.76950        9.7703563E-18
  -26.60800        9.7988585E-18
  -26.44650        9.8468068E-18
  -26.28500        9.8993204E-18
  -26.12350        9.9381292E-18
  -25.96200        9.9524626E-18
  -25.80050        9.9455118E-18
  -25.63900        9.9325515E-18
  -25.47750        9.9318708E-18
  -25.31600        9.9539474E-18
  -25.15450        9.9953718E-18
  -24.99300        1.0041125E-17
  -24.83150        1.0073769E-17
  -24.67000        1.0083992E-17
  -24.50850        1.0076128E-17
  -24.34700        1.0065384E-17
  -24.18550        1.0068526E-17
  -24.02400        1.0093671E-17
  -23.86250        1.0135407E-17
  -23.70100        1.0178131E-17
  -23.53950        1.0205563E-17
  -23.37800        1.0210624E-17
  -23.21650        1.0199694E-17
  -23.05500        1.0188695E-17
  -22.89350        1.0193393E-17
  -22.73200        1.0219816E-17
  -22.57050        1.0260619E-17
  -22.40900        1.0299552E-17
  -22.24750        1.0321325E-17
  -22.08600        1.0320857E-17
  -21.92450        1.0306308E-17
  -21.76300        1.0294067E-17
  -21.60150        1.0298784E-17
  -21.44000        1.0324520E-17
  -21.27850        1.0362394E-17
  -21.11700        1.0396150E-17
  -20.95550        1.0412214E-17
  -20.79400        1.0408094E-17
  -20.63250        1.0393970E-17
  -20.47100        1.0386484E-17
  -20.30950        1.0398515E-17
  -20.14800        1.0431167E-17
  -19.98650        1.0472884E-17
  -19.82500        1.0506276E-17
  -19.66350        1.0518517E-17
  -19.50200        1.0509051E-17
  -19.34050        1.0489879E-17
  -19.17900        1.0478287E-17
  -19.01750        1.0486396E-17
  -18.85600        1.0513903E-17
  -18.69450        1.0548415E-17
  -18.53300        1.0573186E-17
  -18.37150        1.0577539E-17
  -18.21000        1.0563626E-17
  -18.04850        1.0545353E-17
  -17.88700        1.0540067E-17
  -17.72550        1.0558008E-17
  -17.56400        1.0595901E-17
  -17.40250        1.0638620E-17
  -17.24100        1.0667976E-17
  -17.07950        1.0673379E-17
  -16.91800        1.0657960E-17
  -16.75650        1.0636486E-17
  -16.59500        1.0626315E-17
  -16.43350        1.0636861E-17
  -16.27200        1.0663955E-17
  -16.11050        1.0692496E-17
  -15.94900        1.0705844E-17
  -15.78750        1.0696241E-17
  -15.62600        1.0669967E-17
  -15.46450        1.0644056E-17
  -15.30300        1.0636497E-17
  -15.14150        1.0655770E-17
  -14.98000        1.0695998E-17
  -14.81850        1.0740609E-17
  -14.65700        1.0772289E-17
  -14.49550        1.0783251E-17
  -14.33400        1.0779632E-17
  -14.17250        1.0777430E-17
  -14.01100        1.0792447E-17
  -13.84950        1.0830344E-17
  -13.68800        1.0882822E-17
  -13.52650        1.0932217E-17
  -13.36500        1.0961754E-17
  -13.20350        1.0965290E-17
  -13.04200        1.0950700E-17
  -12.88050        1.0934918E-17
  -12.71900        1.0933640E-17
  -12.55750        1.0951926E-17
  -12.39600        1.0981316E-17
  -12.23450        1.1005158E-17
  -12.07300        1.1008885E-17
  -11.91150        1.0988991E-17
  -11.75000        1.0955333E-17
  -11.58850        1.0925375E-17
  -11.42700        1.0913900E-17
  -11.26550        1.0924420E-17
  -11.10400        1.0947416E-17
  -10.94250        1.0966431E-17
  -10.78100        1.0968267E-17
  -10.61950        1.0951076E-17
  -10.45800        1.0925474E-17
  -10.29650        1.0908041E-17
  -10.13500        1.0911202E-17
  -9.973500        1.0935644E-17
  -9.812000        1.0969851E-17
  -9.650500        1.0997026E-17
  -9.489000        1.1005152E-17
  -9.327500        1.0994110E-17
  -9.166000        1.0975557E-17
  -9.004500        1.0965706E-17
  -8.843000        1.0975428E-17
  -8.681500        1.1003710E-17
  -8.520000        1.1038423E-17
  -8.358500        1.1063898E-17
  -8.197000        1.1070647E-17
  -8.035500        1.1061288E-17
  -7.874000        1.1049058E-17
  -7.712500        1.1049795E-17
  -7.551000        1.1072267E-17
  -7.389500        1.1112731E-17
  -7.228000        1.1157034E-17
  -7.066500        1.1188983E-17
  -6.905000        1.1199949E-17
  -6.743500        1.1193849E-17
  -6.582000        1.1184536E-17
  -6.420500        1.1187182E-17
  -6.259000        1.1208929E-17
  -6.097500        1.1244496E-17
  -5.936000        1.1279440E-17
  -5.774500        1.1299112E-17
  -5.613000        1.1297835E-17
  -5.451500        1.1282707E-17
  -5.290000        1.1269642E-17
  -5.128500        1.1273983E-17
  -4.967000        1.1301316E-17
  -4.805500        1.1344035E-17
  -4.644000        1.1385758E-17
  -4.482500        1.1410959E-17
  -4.321000        1.1414033E-17
  -4.159500        1.1402343E-17
  -3.998000        1.1391430E-17
  -3.836500        1.1395299E-17
  -3.675000        1.1417677E-17
  -3.513500        1.1449555E-17
  -3.352000        1.1474555E-17
  -3.190500        1.1478890E-17
  -3.029000        1.1459941E-17
  -2.867500        1.1428224E-17
  -2.706000        1.1401526E-17
  -2.544500        1.1394660E-17
  -2.383000        1.1410973E-17
  -2.221500        1.1440642E-17
  -2.060000        1.1466818E-17
  -1.898500        1.1475865E-17
  -1.737000        1.1465598E-17
  -1.575500        1.1446542E-17
  -1.414000        1.1435508E-17
  -1.252500        1.1445342E-17
  -1.091000        1.1477017E-17
 -0.9295000        1.1518837E-17
 -0.7680000        1.1553219E-17
 -0.6065000        1.1566996E-17
 -0.4450000        1.1559062E-17
 -0.2835000        1.1540773E-17
 -0.1220000        1.1528902E-17
  3.9500002E-02    1.1535365E-17
  0.2010000        1.1559915E-17
  0.3625000        1.1590188E-17
  0.5240000        1.1609061E-17
  0.6855000        1.1604927E-17
  0.8470000        1.1578710E-17
   1.008500        1.1543434E-17
   1.170000        1.1516630E-17
   1.331500        1.1510164E-17
   1.493000        1.1523586E-17
   1.654500        1.1544974E-17
   1.816000        1.1558670E-17
   1.977500        1.1555194E-17
   2.139000        1.1537271E-17
   2.300500        1.1518333E-17
   2.462000        1.1514381E-17
   2.623500        1.1534167E-17
   2.785000        1.1573636E-17
   2.946500        1.1618032E-17
   3.108000        1.1650401E-17
   3.269500        1.1661372E-17
   3.431000        1.1654346E-17
   3.592500        1.1643013E-17
   3.754000        1.1642761E-17
   3.915500        1.1661227E-17
   4.077000        1.1693742E-17
   4.238500        1.1726401E-17
   4.400000        1.1744846E-17
   4.561500        1.1743365E-17
   4.723000        1.1728699E-17
   4.884500        1.1716202E-17
   5.046000        1.1720642E-17
   5.207500        1.1747216E-17
   5.369000        1.1788269E-17
   5.530500        1.1827738E-17
   5.692000        1.1850681E-17
   5.853500        1.1852113E-17
   6.015000        1.1839809E-17
   6.176500        1.1829355E-17
   6.338000        1.1834462E-17
   6.499500        1.1858455E-17
   6.661000        1.1892156E-17
   6.822500        1.1919484E-17
   6.984000        1.1927401E-17
   7.145500        1.1914121E-17
   7.307000        1.1890530E-17
   7.468500        1.1873844E-17
   7.630000        1.1877303E-17
   7.791500        1.1902153E-17
   7.953000        1.1936805E-17
   8.114500        1.1963780E-17
   8.276000        1.1970255E-17
   8.437500        1.1955854E-17
   8.599000        1.1932892E-17
   8.760500        1.1918903E-17
   8.922000        1.1925919E-17
   9.083500        1.1953022E-17
   9.245000        1.1986728E-17
   9.406500        1.2009016E-17
   9.568000        1.2008214E-17
   9.729500        1.1986139E-17
   9.891000        1.1957127E-17
   10.05250        1.1939490E-17
   10.21400        1.1944524E-17
   10.37550        1.1969691E-17
   10.53700        1.2000173E-17
   10.69850        1.2017884E-17
   10.86000        1.2012560E-17
   11.02150        1.1988225E-17
   11.18300        1.1961069E-17
   11.34450        1.1949967E-17
   11.50600        1.1965307E-17
   11.66750        1.2002827E-17
   11.82900        1.2046237E-17
   11.99050        1.2076993E-17
   12.15200        1.2085391E-17
   12.31350        1.2076221E-17
   12.47500        1.2065579E-17
   12.63650        1.2070752E-17
   12.79800        1.2099315E-17
   12.95950        1.2144081E-17
   13.12100        1.2187026E-17
   13.28250        1.2209841E-17
   13.44400        1.2204771E-17
   13.60550        1.2179186E-17
   13.76700        1.2151137E-17
   13.92850        1.2138595E-17
   14.09000        1.2148891E-17
   14.25150        1.2174727E-17
   14.41300        1.2199126E-17
   14.57450        1.2206254E-17
   14.73600        1.2191472E-17
   14.89750        1.2164476E-17
   15.05900        1.2143611E-17
   15.22050        1.2144809E-17
   15.38200        1.2171881E-17
   15.54350        1.2214099E-17
   15.70500        1.2252517E-17
   15.86650        1.2271209E-17
   16.02800        1.2266608E-17
   16.18950        1.2249262E-17
   16.35100        1.2237013E-17
   16.51250        1.2243786E-17
   16.67400        1.2270872E-17
   16.83550        1.2306072E-17
   16.99700        1.2331223E-17
   17.15850        1.2333499E-17
   17.32000        1.2313534E-17
   17.48150        1.2285334E-17
   17.64300        1.2267967E-17
   17.80450        1.2274091E-17
   17.96600        1.2302330E-17
   18.12750        1.2338183E-17
   18.28900        1.2362972E-17
   18.45050        1.2365317E-17
   18.61200        1.2348095E-17
   18.77350        1.2326588E-17
   18.93500        1.2318911E-17
   19.09650        1.2334628E-17
   19.25800        1.2368568E-17
   19.41950        1.2403753E-17
   19.58100        1.2421679E-17
   19.74250        1.2413698E-17
   19.90400        1.2386462E-17
   20.06550        1.2358039E-17
   20.22700        1.2346995E-17
   20.38850        1.2361119E-17
   20.55000        1.2392688E-17
   20.71150        1.2423246E-17
   20.87300        1.2435017E-17
   21.03450        1.2421975E-17
   21.19600        1.2393787E-17
   21.35750        1.2370128E-17
   21.51900        1.2368777E-17
   21.68050        1.2394728E-17
   21.84200        1.2437015E-17
   22.00350        1.2475229E-17
   22.16500        1.2491857E-17
   22.32650        1.2482899E-17
   22.48800        1.2460281E-17
   22.64950        1.2444510E-17
   22.81100        1.2451984E-17
   22.97250        1.2484717E-17
   23.13400        1.2528775E-17
   23.29550        1.2562504E-17
   23.45700        1.2569574E-17
   23.61850        1.2548944E-17
   23.78000        1.2515630E-17
   23.94150        1.2491771E-17
   24.10300        1.2493417E-17
   24.26450        1.2521069E-17
   24.42600        1.2559743E-17
   24.58750        1.2588491E-17
   24.74900        1.2593515E-17
   24.91050        1.2576831E-17
   25.07200        1.2555145E-17
   25.23350        1.2549619E-17
   25.39500        1.2572777E-17
   25.55650        1.2620551E-17
   25.71800        1.2674341E-17
   25.87950        1.2711828E-17
   26.04100        1.2719986E-17
   26.20250        1.2702409E-17
   26.36400        1.2676573E-17
   26.52550        1.2662833E-17
   26.68700        1.2671893E-17
   26.84850        1.2698456E-17
   27.01000        1.2724850E-17
   27.17150        1.2732349E-17
   27.33300        1.2713164E-17
   27.49450        1.2675715E-17
   27.65600        1.2639921E-17
   27.81750        1.2625394E-17
   27.97900        1.2639754E-17
   28.14050        1.2674231E-17
   28.30200        1.2709196E-17
   28.46350        1.2726198E-17
   28.62500        1.2719086E-17
   28.78650        1.2697409E-17
   28.94800        1.2680078E-17
   29.10950        1.2683307E-17
   29.27100        1.2710335E-17
   29.43250        1.2749313E-17
   29.59400        1.2780614E-17
   29.75550        1.2788990E-17
   29.91700        1.2773019E-17
   30.07850        1.2745976E-17
   30.24000        1.2727617E-17
   30.40150        1.2732002E-17
   30.56300        1.2758886E-17
   30.72450        1.2794002E-17
   30.88600        1.2818010E-17
   31.04750        1.2818547E-17
   31.20900        1.2797930E-17
   31.37050        1.2771743E-17
   31.53200        1.2759233E-17
   31.69350        1.2771438E-17
   31.85500        1.2804405E-17
   32.01650        1.2841652E-17
   32.17800        1.2864359E-17
   32.33950        1.2862975E-17
   32.50100        1.2843073E-17
   32.66250        1.2821828E-17
   32.82400        1.2817257E-17
   32.98550        1.2836894E-17
   33.14700        1.2872881E-17
   33.30850        1.2906589E-17
   33.47000        1.2919965E-17
   33.63150        1.2906655E-17
   33.79300        1.2876073E-17
   33.95450        1.2847875E-17
   34.11600        1.2840205E-17
   34.27750        1.2858884E-17
   34.43900        1.2894177E-17
   34.60050        1.2927050E-17
   34.76200        1.2941069E-17
   34.92350        1.2932583E-17
   35.08500        1.2912940E-17
   35.24650        1.2901357E-17
   35.40800        1.2912845E-17
   35.56950        1.2948613E-17
   35.73100        1.2994821E-17
   35.89250        1.3030512E-17
   36.05400        1.3039882E-17
   36.21550        1.3021503E-17
   36.37700        1.2988925E-17
   36.53850        1.2962393E-17
   36.70000        1.2956753E-17
   36.86150        1.2972905E-17
   37.02300        1.2997892E-17
   37.18450        1.3013468E-17
   37.34600        1.3007790E-17
   37.50750        1.2983085E-17
   37.66900        1.2954606E-17
   37.83050        1.2941570E-17
   37.99200        1.2955604E-17
   38.15350        1.2993718E-17
   38.31500        1.3040004E-17
   38.47650        1.3074993E-17
   38.63800        1.3086939E-17
   38.79950        1.3078242E-17
   38.96100        1.3063256E-17
   39.12250        1.3058948E-17
   39.28400        1.3074236E-17
   39.44550        1.3104501E-17
   39.60700        1.3134515E-17
   39.76850        1.3147891E-17
   39.93000        1.3137202E-17
   40.09150        1.3108574E-17
   40.25300        1.3078024E-17
   40.41450        1.3061886E-17
   40.57600        1.3067204E-17
   40.73750        1.3087949E-17
   40.89900        1.3109229E-17
   41.06050        1.3116796E-17
   41.22200        1.3105927E-17
   41.38350        1.3084302E-17
   41.54500        1.3067161E-17
   41.70650        1.3067872E-17
   41.86800        1.3089718E-17
   42.02950        1.3123938E-17
   42.19100        1.3155125E-17
   42.35250        1.3170581E-17
   42.51400        1.3167835E-17
   42.67550        1.3155746E-17
   42.83700        1.3148624E-17
   42.99850        1.3157069E-17
   43.16000        1.3181238E-17
   43.32150        1.3210662E-17
   43.48300        1.3230723E-17
   43.64450        1.3231751E-17
   43.80600        1.3215125E-17
   43.96750        1.3192616E-17
   44.12900        1.3179378E-17
   44.29050        1.3184896E-17
   44.45200        1.3207438E-17
   44.61350        1.3235399E-17
   44.77500        1.3254645E-17
   44.93650        1.3257325E-17
   45.09800        1.3246688E-17
   45.25950        1.3234922E-17
   45.42100        1.3235354E-17
   45.58250        1.3253836E-17
   45.74400        1.3284673E-17
   45.90550        1.3313674E-17
   46.06700        1.3326509E-17
   46.22850        1.3317319E-17
   46.39000        1.3292294E-17
   46.55150        1.3266048E-17
   46.71300        1.3252989E-17
   46.87450        1.3258915E-17
   47.03600        1.3277936E-17
   47.19750        1.3296554E-17
   47.35900        1.3302366E-17
   47.52050        1.3292014E-17
   47.68200        1.3273526E-17
   47.84350        1.3261571E-17
   48.00500        1.3268509E-17
   48.16650        1.3296663E-17
   48.32800        1.3336521E-17
   48.48950        1.3371972E-17
   48.65100        1.3389468E-17
   48.81250        1.3385636E-17
   48.97400        1.3368817E-17
   49.13550        1.3353651E-17
   49.29700        1.3352061E-17
   49.45850        1.3366057E-17
   49.62000        1.3386722E-17
   49.78150        1.3399920E-17
   49.94300        1.3395235E-17
   50.10450        1.3372704E-17
   50.26600        1.3343222E-17
   50.42750        1.3322420E-17
   50.58900        1.3321656E-17
   50.75050        1.3341558E-17
   50.91200        1.3371957E-17
   51.07350        1.3398160E-17
   51.23500        1.3409731E-17
   51.39650        1.3406446E-17
   51.55800        1.3397937E-17
   51.71950        1.3397331E-17
   51.88100        1.3412886E-17
   52.04250        1.3442705E-17
   52.20400        1.3475693E-17
   52.36550        1.3498087E-17
   52.52700        1.3501531E-17
   52.68850        1.3487830E-17
   52.85000        1.3467576E-17
   53.01150        1.3453613E-17
   53.17300        1.3453381E-17
   53.33450        1.3464777E-17
   53.49600        1.3477921E-17
   53.65750        1.3481656E-17
   53.81900        1.3470700E-17
   53.98050        1.3449120E-17
   54.14200        1.3428068E-17
   54.30350        1.3419229E-17
   54.46500        1.3428010E-17
   54.62650        1.3450575E-17
   54.78800        1.3476463E-17
   54.94950        1.3495056E-17
   55.11100        1.3501900E-17
   55.27250        1.3501003E-17
   55.43400        1.3501804E-17
   55.59550        1.3512764E-17
   55.75700        1.3535622E-17
   55.91850        1.3563882E-17
   56.08000        1.3586479E-17
   56.24150        1.3594360E-17
   56.40300        1.3585933E-17
   56.56450        1.3568058E-17
   56.72600        1.3551999E-17
   56.88750        1.3546837E-17
   57.04900        1.3554392E-17
   57.21050        1.3568704E-17
   57.37200        1.3580274E-17
   57.53350        1.3582404E-17
   57.69500        1.3575615E-17
   57.85650        1.3567445E-17
   58.01800        1.3567709E-17
   58.17950        1.3582162E-17
   58.34100        1.3608458E-17
   58.50250        1.3636968E-17
   58.66400        1.3656015E-17
   58.82550        1.3658429E-17
   58.98700        1.3645525E-17
   59.14850        1.3626116E-17
   59.31000        1.3611196E-17
   59.47150        1.3607493E-17
   59.63300        1.3613758E-17
   59.79450        1.3621995E-17
   59.95600        1.3622870E-17
   60.11750        1.3611990E-17
   60.27900        1.3593171E-17
   60.44050        1.3576667E-17
   60.60200        1.3573313E-17
   60.76350        1.3588064E-17
   60.92500        1.3616818E-17
   61.08650        1.3648456E-17
   61.24800        1.3671003E-17
   61.40950        1.3678250E-17
   61.57100        1.3672984E-17
   61.73250        1.3664904E-17
   61.89400        1.3664491E-17
   62.05550        1.3676516E-17
   62.21700        1.3697060E-17
   62.37850        1.3715842E-17
   62.54000        1.3722425E-17
   62.70150        1.3712618E-17
   62.86300        1.3691216E-17
   63.02450        1.3669462E-17
   63.18600        1.3658698E-17
   63.34750        1.3663957E-17
   63.50900        1.3681252E-17
   63.67050        1.3700162E-17
   63.83200        1.3710184E-17
   63.99350        1.3707111E-17
   64.15500        1.3695636E-17
   64.31650        1.3686659E-17
   64.47800        1.3690835E-17
   64.63950        1.3712181E-17
   64.80100        1.3745481E-17
   64.96250        1.3779075E-17
   65.12400        1.3801386E-17
   65.28550        1.3807366E-17
   65.44700        1.3801012E-17
   65.60850        1.3792486E-17
   65.77000        1.3791563E-17
   65.93150        1.3801413E-17
   66.09300        1.3816517E-17
   66.25450        1.3826029E-17
   66.41600        1.3820611E-17
   66.57750        1.3798579E-17
   66.73900        1.3767583E-17
   66.90050        1.3740739E-17
   67.06200        1.3729439E-17
   67.22350        1.3737134E-17
   67.38500        1.3757807E-17
   67.54650        1.3780009E-17
   67.70800        1.3793984E-17
   67.86950        1.3797475E-17
   68.03100        1.3796713E-17
   68.19250        1.3801963E-17
   68.35400        1.3820449E-17
   68.51550        1.3851050E-17
   68.67700        1.3884147E-17
   68.83850        1.3906880E-17
   69.00000        1.3910693E-17
   69.16150        1.3896571E-17
   69.32300        1.3874678E-17
   69.48450        1.3858491E-17
   69.64600        1.3856933E-17
   69.80750        1.3869298E-17
   69.96900        1.3886108E-17
   70.13050        1.3895435E-17
   70.29200        1.3890783E-17
   70.45350        1.3875560E-17
   70.61500        1.3861233E-17
   70.77650        1.3860163E-17
   70.93800        1.3877514E-17
   71.09950        1.3907388E-17
   71.26100        1.3935780E-17
   71.42250        1.3948760E-17
   71.58400        1.3940875E-17
   71.74550        1.3918536E-17
   71.90700        1.3896173E-17
   72.06850        1.3887365E-17
   72.23000        1.3896423E-17
   72.39150        1.3915674E-17
   72.55300        1.3930244E-17
   72.71450        1.3927529E-17
   72.87600        1.3905470E-17
   73.03750        1.3874420E-17
   73.19900        1.3851287E-17
   73.36050        1.3849400E-17
   73.52200        1.3870320E-17
   73.68350        1.3902721E-17
   73.84500        1.3929189E-17
   74.00650        1.3936875E-17
   74.16800        1.3925521E-17
   74.32950        1.3907766E-17
   74.49100        1.3901430E-17
   74.65250        1.3918315E-17
   74.81400        1.3956453E-17
   74.97550        1.4000665E-17
   75.13700        1.4031288E-17
   75.29850        1.4035829E-17
   75.46000        1.4016463E-17
   75.62150        1.3988632E-17
   75.78300        1.3971539E-17
   75.94450        1.3976303E-17
   76.10600        1.3999114E-17
   76.26750        1.4023698E-17
   76.42900        1.4031696E-17
   76.59050        1.4014556E-17
   76.75200        1.3979508E-17
   76.91350        1.3945833E-17
   77.07500        1.3933522E-17
   77.23650        1.3951308E-17
   77.39800        1.3991399E-17
   77.55950        1.4034206E-17
   77.72100        1.4060161E-17
   77.88250        1.4061381E-17
   78.04400        1.4045977E-17
   78.20550        1.4032396E-17
   78.36700        1.4037315E-17
   78.52850        1.4064699E-17
   78.69000        1.4102839E-17
   78.85150        1.4131312E-17
   79.01300        1.4133574E-17
   79.17450        1.4107398E-17
   79.33600        1.4066658E-17
   79.49750        1.4033255E-17
   79.65900        1.4024146E-17
   79.82050        1.4041427E-17
   79.98200        1.4071633E-17
   80.14350        1.4094620E-17
   80.30500        1.4096526E-17
   80.46650        1.4078614E-17
   80.62800        1.4056465E-17
   80.78950        1.4049954E-17
   80.95100        1.4070316E-17
   81.11250        1.4112466E-17
   81.27400        1.4157530E-17
   81.43550        1.4184106E-17
   81.59700        1.4181315E-17
   81.75850        1.4155443E-17
   81.92000        1.4125960E-17
   82.08150        1.4113341E-17
   82.24300        1.4126291E-17
   82.40450        1.4156412E-17
   82.56600        1.4183692E-17
   82.72750        1.4189421E-17
   82.88900        1.4168378E-17
   83.05050        1.4132581E-17
   83.21200        1.4104119E-17
   83.37350        1.4101456E-17
   83.53500        1.4127744E-17
   83.69650        1.4168567E-17
   83.85800        1.4200638E-17
   84.01950        1.4206172E-17
   84.18100        1.4183964E-17
   84.34250        1.4150220E-17
   84.50400        1.4128467E-17
   84.66550        1.4134756E-17
   84.82700        1.4167380E-17
   84.98850        1.4207568E-17
   85.15000        1.4230928E-17
   85.31150        1.4222591E-17
   85.47300        1.4186674E-17
   85.63450        1.4144036E-17
   85.79600        1.4119604E-17
   85.95750        1.4127044E-17
   86.11900        1.4160301E-17
   86.28050        1.4197409E-17
   86.44200        1.4214288E-17
   86.60350        1.4200054E-17
   86.76500        1.4164240E-17
   86.92650        1.4131334E-17
   87.08800        1.4125856E-17
   87.24950        1.4157133E-17
   87.41100        1.4213236E-17
   87.57250        1.4267908E-17
   87.73400        1.4296326E-17
   87.89550        1.4289950E-17
   88.05700        1.4261280E-17
   88.21850        1.4235572E-17
   88.38000        1.4234657E-17
   88.54150        1.4262964E-17
   88.70300        1.4304472E-17
   88.86450        1.4332575E-17
   89.02600        1.4326786E-17
   89.18750        1.4285912E-17
   89.34900        1.4229464E-17
   89.51050        1.4186326E-17
   89.67200        1.4177628E-17
   89.83350        1.4204365E-17
   89.99500        1.4247407E-17
   90.15650        1.4279799E-17
   90.31800        1.4283725E-17
   90.47950        1.4261507E-17
   90.64100        1.4233831E-17
   90.80250        1.4226322E-17
   90.96400        1.4252866E-17
   91.12550        1.4306201E-17
   91.28700        1.4361728E-17
   91.44850        1.4392292E-17
   91.61000        1.4384760E-17
   91.77150        1.4348023E-17
   91.93300        1.4307417E-17
   92.09450        1.4288979E-17
   92.25600        1.4303385E-17
   92.41750        1.4339614E-17
   92.57900        1.4372293E-17
   92.74050        1.4378148E-17
   92.90200        1.4351127E-17
   93.06350        1.4306648E-17
   93.22500        1.4272181E-17
   93.38650        1.4270042E-17
   93.54800        1.4303238E-17
   93.70950        1.4353380E-17
   93.87100        1.4392051E-17
   94.03250        1.4398569E-17
   94.19400        1.4372978E-17
   94.35550        1.4335983E-17
   94.51700        1.4315841E-17
   94.67850        1.4330347E-17
   94.84000        1.4375301E-17
   95.00150        1.4426809E-17
   95.16300        1.4456086E-17
   95.32450        1.4447507E-17
   95.48600        1.4408525E-17
   95.64750        1.4365133E-17
   95.80900        1.4345605E-17
   95.97050        1.4362693E-17
   96.13200        1.4405509E-17
   96.29350        1.4446332E-17
   96.45500        1.4458176E-17
   96.61650        1.4432134E-17
   96.77800        1.4383495E-17
   96.93950        1.4342625E-17
   97.10100        1.4336155E-17
   97.26250        1.4370225E-17
   97.42400        1.4426372E-17
   97.58550        1.4472764E-17
   97.74700        1.4483853E-17
   97.90850        1.4456164E-17
   98.07000        1.4410254E-17
   98.23150        1.4377570E-17
   98.39300        1.4380411E-17
   98.55450        1.4417632E-17
   98.71600        1.4465207E-17
   98.87750        1.4491342E-17
   99.03900        1.4476748E-17
   99.20050        1.4427223E-17
   99.36200        1.4370627E-17
   99.52350        1.4339993E-17
   99.68500        1.4353344E-17
   99.84650        1.4402831E-17
   100.0080        1.4459921E-17
   100.1695        1.4493387E-17
   100.3310        1.4488710E-17
   100.4925        1.4456788E-17
   100.6540        1.4426488E-17
   100.8155        1.4425868E-17
   100.9770        1.4463910E-17
   101.1385        1.4524350E-17
   101.3000        1.4575475E-17
   101.4615        1.4589726E-17
   101.6230        1.4560807E-17
   101.7845        1.4507547E-17
   101.9460        1.4462141E-17
   102.1075        1.4450213E-17
   102.2690        1.4475219E-17
   102.4305        1.4516967E-17
   102.5920        1.4545051E-17
   102.7535        1.4538579E-17
   102.9150        1.4499670E-17
   103.0765        1.4452167E-17
   103.2380        1.4426486E-17
   103.3995        1.4440274E-17
   103.5610        1.4487180E-17
   103.7225        1.4540824E-17
   103.8840        1.4571394E-17
   104.0455        1.4564243E-17
   104.2070        1.4528756E-17
   104.3685        1.4491895E-17
   104.5300        1.4480726E-17
   104.6915        1.4505062E-17
   104.8530        1.4551282E-17
   105.0145        1.4591153E-17
   105.1760        1.4599888E-17
   105.3375        1.4571945E-17
   105.4990        1.4524527E-17
   105.6605        1.4486669E-17
   105.8220        1.4480932E-17
   105.9835        1.4509330E-17
   106.1450        1.4552418E-17
   106.3065        1.4581967E-17
   106.4680        1.4579149E-17
   106.6295        1.4546618E-17
   106.7910        1.4506883E-17
   106.9525        1.4488024E-17
   107.1140        1.4505871E-17
   107.2755        1.4553927E-17
   107.4370        1.4607348E-17
   107.5985        1.4638437E-17
   107.7600        1.4633778E-17
   107.9215        1.4602244E-17
   108.0830        1.4568872E-17
   108.2445        1.4558670E-17
   108.4060        1.4580628E-17
   108.5675        1.4622123E-17
   108.7290        1.4657101E-17
   108.8905        1.4662799E-17
   109.0520        1.4634354E-17
   109.2135        1.4588121E-17
   109.3750        1.4551692E-17
   109.5365        1.4546980E-17
   109.6980        1.4576990E-17
   109.8595        1.4624449E-17
   110.0210        1.4662936E-17
   110.1825        1.4673373E-17
   110.3440        1.4655486E-17
   110.5055        1.4627233E-17
   110.6670        1.4612814E-17
   110.8285        1.4626962E-17
   110.9900        1.4665442E-17
   111.1515        1.4707591E-17
   111.3130        1.4729139E-17
   111.4745        1.4717192E-17
   111.6360        1.4678032E-17
   111.7975        1.4633029E-17
   111.9590        1.4605450E-17
   112.1205        1.4606524E-17
   112.2820        1.4629369E-17
   112.4435        1.4654328E-17
   112.6050        1.4662031E-17
   112.7665        1.4645837E-17
   112.9280        1.4615886E-17
   113.0895        1.4592462E-17
   113.2510        1.4593067E-17
   113.4125        1.4621448E-17
   113.5740        1.4665318E-17
   113.7355        1.4703999E-17
   113.8970        1.4720943E-17
   114.0585        1.4713287E-17
   114.2200        1.4692665E-17
   114.3815        1.4677092E-17
   114.5430        1.4679306E-17
   114.7045        1.4698869E-17
   114.8660        1.4722842E-17
   115.0275        1.4734323E-17
   115.1890        1.4723287E-17
   115.3505        1.4692936E-17
   115.5120        1.4657743E-17
   115.6735        1.4634599E-17
   115.8350        1.4632718E-17
   115.9965        1.4648540E-17
   116.1580        1.4668632E-17
   116.3195        1.4678532E-17
   116.4810        1.4671916E-17
   116.6425        1.4654365E-17
   116.8040        1.4639553E-17
   116.9655        1.4640430E-17
   117.1270        1.4660956E-17
   117.2885        1.4693573E-17
   117.4500        1.4723797E-17
   117.6115        1.4738974E-17
   117.7730        1.4735706E-17
   117.9345        1.4721439E-17
   118.0960        1.4709379E-17
   118.2575        1.4710097E-17
   118.4190        1.4725037E-17
   118.5805        1.4745876E-17
   118.7420        1.4759944E-17