  -27.90000        4.5640534E-18
  -27.73850        4.5635654E-18
  -27.57700        4.5627982E-18
  -27.41550        4.5620003E-18
  -27.25400        4.5612786E-18
  -27.09250        4.5605639E-18
  -26.93100        4.5597297E-18
  -26.76950        4.5587561E-18
  -26.60800        4.5577797E-18
  -26.44650        4.5569835E-18
  -26.28500        4.5564264E-18
  -26.12350        4.5559706E-18
  -25.96200        4.5553879E-18
  -25.80050        4.5545541E-18
  -25.63900        4.5535668E-18
  -25.47750        4.5526768E-18
  -25.31600        4.5520750E-18
  -25.15450        4.5517230E-18
  -24.99300        4.5513748E-18
  -24.83150        4.5507834E-18
  -24.67000        4.5499181E-18
  -24.50850        4.5489975E-18
  -24.34700        4.5483138E-18
  -24.18550        4.5479908E-18
  -24.02400        4.5478787E-18
  -23.86250        4.5476723E-18
  -23.70100        4.5471541E-18
  -23.53950        4.5463608E-18
  -23.37800        4.5455448E-18
  -23.21650        4.5449666E-18
  -23.05500        4.5446941E-18
  -22.89350        4.5445745E-18
  -22.73200        4.5443797E-18
  -22.57050        4.5439992E-18
  -22.40900        4.5435042E-18
  -22.24750        4.5430472E-18
  -22.08600        4.5427035E-18
  -21.92450        4.5424048E-18
  -21.76300        4.5420314E-18
  -21.60150        4.5415533E-18
  -21.44000        4.5410917E-18
  -21.27850        4.5408233E-18
  -21.11700        4.5408171E-18
  -20.95550        4.5409552E-18
  -20.79400        4.5410069E-18
  -20.63250        4.5408038E-18
  -20.47100        4.5403609E-18
  -20.30950        4.5398364E-18
  -20.14800        4.5393645E-18
  -19.98650        4.5389125E-18
  -19.82500        4.5383024E-18
  -19.66350        4.5373847E-18
  -19.50200        4.5362196E-18
  -19.34050        4.5350922E-18
  -19.17900        4.5343241E-18
  -19.01750        4.5340433E-18
  -18.85600        4.5340937E-18
  -18.69450        4.5341653E-18
  -18.53300        4.5340408E-18
  -18.37150        4.5337476E-18
  -18.21000        4.5334945E-18
  -18.04850        4.5334506E-18
  -17.88700        4.5335615E-18
  -17.72550        4.5335544E-18
  -17.56400        4.5331396E-18
  -17.40250        4.5322421E-18
  -17.24100        4.5310754E-18
  -17.07950        4.5299975E-18
  -16.91800        4.5292696E-18
  -16.75650        4.5289127E-18
  -16.59500        4.5287638E-18
  -16.43350        4.5286617E-18
  -16.27200        4.5285934E-18
  -16.11050        4.5286799E-18
  -15.94900        4.5290463E-18
  -15.78750        4.5297018E-18
  -15.62600        4.5305394E-18
  -15.46450        4.5314414E-18
  -15.30300        4.5323716E-18
  -15.14150        4.5333654E-18
  -14.98000        4.5344242E-18
  -14.81850        4.5354255E-18
  -14.65700        4.5361613E-18
  -14.49550        4.5364818E-18
  -14.33400        4.5364372E-18
  -14.17250        4.5362548E-18
  -14.01100        4.5361621E-18
  -13.84950        4.5361729E-18
  -13.68800        4.5360356E-18
  -13.52650        4.5353920E-18
  -13.36500        4.5340383E-18
  -13.20350        4.5320610E-18
  -13.04200        4.5297448E-18
  -12.88050        4.5273196E-18
  -12.71900        4.5247644E-18
  -12.55750        4.5218308E-18
  -12.39600        4.5182739E-18
  -12.23450        4.5141140E-18
  -12.07300        4.5097122E-18
  -11.91150        4.5056052E-18
  -11.75000        4.5022245E-18
  -11.58850        4.4997087E-18
  -11.42700        4.4979455E-18
  -11.26550        4.4967672E-18
  -11.10400        4.4961179E-18
  -10.94250        4.4960530E-18
  -10.78100        4.4966063E-18
  -10.61950        4.4976556E-18
  -10.45800        4.4989365E-18
  -10.29650        4.5001814E-18
  -10.13500        4.5012766E-18
  -9.973500        4.5022920E-18
  -9.812000        4.5033884E-18
  -9.650500        4.5046858E-18
  -9.489000        4.5062169E-18
  -9.327500        4.5079937E-18
  -9.166000        4.5100935E-18
  -9.004500        4.5126557E-18
  -8.843000        4.5157556E-18
  -8.681500        4.5192649E-18
  -8.520000        4.5228333E-18
  -8.358500        4.5260502E-18
  -8.197000        4.5286712E-18
  -8.035500        4.5307379E-18
  -7.874000        4.5324758E-18
  -7.712500        4.5340685E-18
  -7.551000        4.5354880E-18
  -7.389500        4.5365306E-18
  -7.228000        4.5370187E-18
  -7.066500        4.5370000E-18
  -6.905000        4.5367705E-18
  -6.743500        4.5366799E-18
  -6.582000        4.5368780E-18
  -6.420500        4.5371886E-18
  -6.259000        4.5372168E-18
  -6.097500        4.5366005E-18
  -5.936000        4.5352179E-18
  -5.774500        4.5331905E-18
  -5.613000        4.5307222E-18
  -5.451500        4.5279222E-18
  -5.290000        4.5247636E-18
  -5.128500        4.5211963E-18
  -4.967000        4.5172896E-18
  -4.805500        4.5132753E-18
  -4.644000        4.5094520E-18
  -4.482500        4.5060523E-18
  -4.321000        4.5031820E-18
  -4.159500        4.5008692E-18
  -3.998000        4.4991578E-18
  -3.836500        4.4981391E-18
  -3.675000        4.4978632E-18
  -3.513500        4.4982202E-18
  -3.352000        4.4989042E-18
  -3.190500        4.4995346E-18
  -3.029000        4.4998489E-18
  -2.867500        4.4998265E-18
  -2.706000        4.4996247E-18
  -2.544500        4.4993910E-18
  -2.383000        4.4991065E-18
  -2.221500        4.4986015E-18
  -2.060000        4.4977338E-18
  -1.898500        4.4965732E-18
  -1.737000        4.4954272E-18
  -1.575500        4.4946711E-18
  -1.414000        4.4944979E-18
  -1.252500        4.4947783E-18
  -1.091000        4.4951418E-18
 -0.9295000        4.4952051E-18
 -0.7680000        4.4947903E-18
 -0.6065000        4.4939635E-18
 -0.4450000        4.4928993E-18
 -0.2835000        4.4917094E-18
 -0.1220000        4.4903822E-18
  3.9500002E-02    4.4888714E-18
  0.2010000        4.4872253E-18
  0.3625000        4.4856387E-18
  0.5240000        4.4843641E-18
  0.6855000        4.4835778E-18
  0.8470000        4.4833123E-18
   1.008500        4.4834964E-18
   1.170000        4.4840514E-18
   1.331500        4.4849398E-18
   1.493000        4.4861111E-18
   1.654500        4.4874147E-18
   1.816000        4.4885889E-18
   1.977500        4.4893809E-18
   2.139000        4.4897308E-18
   2.300500        4.4898549E-18
   2.462000        4.4901423E-18
   2.623500        4.4909091E-18
   2.785000        4.4922041E-18
   2.946500        4.4938266E-18
   3.108000        4.4955430E-18
   3.269500        4.4973272E-18
   3.431000        4.4994200E-18
   3.592500        4.5021464E-18
   3.754000        4.5056243E-18
   3.915500        4.5095931E-18
   4.077000        4.5134965E-18
   4.238500        4.5167680E-18
   4.400000        4.5191052E-18
   4.561500        4.5205400E-18
   4.723000        4.5212832E-18
   4.884500        4.5214867E-18
   5.046000        4.5211269E-18
   5.207500        4.5200817E-18
   5.369000        4.5183157E-18
   5.530500        4.5160000E-18
   5.692000        4.5134692E-18
   5.853500        4.5110646E-18
   6.015000        4.5089930E-18
   6.176500        4.5072794E-18
   6.338000        4.5058170E-18
   6.499500        4.5044282E-18
   6.661000        4.5028751E-18
   6.822500        4.5008684E-18
   6.984000        4.4981118E-18
   7.145500        4.4944255E-18
   7.307000        4.4898752E-18
   7.468500        4.4847921E-18
   7.630000        4.4796330E-18
   7.791500        4.4747684E-18
   7.953000        4.4703537E-18
   8.114500        4.4664014E-18
   8.276000        4.4629926E-18
   8.437500        4.4604242E-18
   8.599000        4.4591342E-18
   8.760500        4.4594130E-18
   8.922000        4.4611133E-18
   9.083500        4.4636010E-18
   9.245000        4.4660313E-18
   9.406500        4.4677795E-18
   9.568000        4.4687436E-18
   9.729500        4.4693114E-18
   9.891000        4.4700286E-18
   10.05250        4.4712173E-18
   10.21400        4.4728133E-18
   10.37550        4.4745148E-18
   10.53700        4.4760968E-18
   10.69850        4.4776279E-18
   10.86000        4.4794465E-18
   11.02150        4.4819185E-18
   11.18300        4.4851801E-18
   11.34450        4.4890194E-18
   11.50600        4.4929556E-18
   11.66750        4.4964182E-18
   11.82900        4.4989311E-18
   11.99050        4.5002269E-18
   12.15200        4.5002947E-18
   12.31350        4.4993621E-18
   12.47500        4.4978182E-18
   12.63650        4.4960649E-18
   12.79800        4.4943457E-18
   12.95950        4.4926541E-18
   13.12100        4.4908057E-18
   13.28250        4.4886741E-18
   13.44400        4.4864208E-18
   13.60550        4.4845283E-18
   13.76700        4.4835489E-18
   13.92850        4.4837011E-18
   14.09000        4.4846077E-18
   14.25150        4.4854055E-18
   14.41300        4.4851904E-18
   14.57450        4.4835303E-18
   14.73600        4.4806997E-18
   14.89750        4.4774720E-18
   15.05900        4.4746281E-18
   15.22050        4.4725346E-18
   15.38200        4.4710692E-18
   15.54350        4.4699186E-18
   15.70500        4.4689946E-18
   15.86650        4.4686278E-18
   16.02800        4.4693892E-18
   16.18950        4.4716701E-18
   16.35100        4.4753234E-18
   16.51250        4.4796132E-18
   16.67400        4.4835038E-18
   16.83550        4.4860838E-18
   16.99700        4.4868870E-18
   17.15850        4.4859626E-18
   17.32000        4.4837238E-18
   17.48150        4.4807154E-18
   17.64300        4.4774170E-18
   17.80450        4.4741587E-18
   17.96600        4.4711341E-18
   18.12750        4.4684772E-18
   18.28900        4.4663534E-18
   18.45050        4.4650084E-18
   18.61200        4.4647272E-18
   18.77350        4.4656809E-18
   18.93500        4.4677299E-18
   19.09650        4.4703099E-18
   19.25800        4.4725445E-18
   19.41950        4.4735884E-18
   19.58100        4.4730420E-18
   19.74250        4.4711618E-18
   19.90400        4.4687039E-18
   20.06550        4.4664746E-18
   20.22700        4.4648744E-18
   20.38850        4.4637499E-18
   20.55000        4.4626708E-18
   20.71150        4.4614172E-18
   20.87300        4.4603080E-18
   21.03450        4.4601082E-18
   21.19600        4.4615450E-18
   21.35750        4.4647620E-18
   21.51900        4.4691117E-18
   21.68050        4.4734461E-18
   21.84200        4.4767097E-18
   22.00350        4.4784584E-18
   22.16500        4.4789704E-18
   22.32650        4.4789241E-18
   22.48800        4.4789055E-18
   22.64950        4.4790817E-18
   22.81100        4.4792277E-18
   22.97250        4.4790287E-18
   23.13400        4.4784261E-18
   23.29550        4.4777574E-18
   23.45700        4.4776246E-18
   23.61850        4.4785792E-18
   23.78000        4.4808097E-18
   23.94150        4.4839749E-18
   24.10300        4.4872741E-18
   24.26450        4.4897039E-18
   24.42600        4.4904352E-18
   24.58750        4.4891385E-18
   24.74900        4.4861235E-18
   24.91050        4.4821836E-18
   25.07200        4.4782069E-18
   25.23350        4.4747572E-18
   25.39500        4.4718798E-18
   25.55650        4.4692788E-18
   25.71800        4.4667430E-18
   25.87950        4.4645076E-18
   26.04100        4.4632445E-18
   26.20250        4.4636370E-18
   26.36400        4.4658083E-18
   26.52550        4.4690203E-18
   26.68700        4.4719088E-18
   26.84850        4.4731491E-18
   27.01000        4.4721408E-18
   27.17150        4.4692655E-18
   27.33300        4.4655676E-18
   27.49450        4.4621059E-18
   27.65600        4.4594151E-18
   27.81750        4.4574170E-18
   27.97900        4.4557688E-18
   28.14050        4.4543320E-18
   28.30200        4.4534043E-18
   28.46350        4.4535719E-18
   28.62500        4.4553077E-18
   28.78650        4.4586181E-18
   28.94800        4.4629455E-18
   29.10950        4.4673601E-18
   29.27100        4.4708992E-18
   29.43250        4.4728832E-18
   29.59400        4.4730826E-18
   29.75550        4.4717190E-18
   29.91700        4.4693185E-18
   30.07850        4.4664870E-18
   30.24000        4.4636750E-18
   30.40150        4.4610529E-18
   30.56300        4.4585775E-18
   30.72450        4.4562259E-18
   30.88600        4.4542464E-18
   31.04750        4.4532025E-18
   31.20900        4.4537249E-18
   31.37050        4.4560720E-18
   31.53200        4.4598158E-18
   31.69350        4.4639108E-18
   31.85500        4.4671657E-18
   32.01650        4.4688424E-18
   32.17800        4.4689764E-18
   32.33950        4.4682237E-18
   32.50100        4.4673415E-18
   32.66250        4.4666905E-18
   32.82400        4.4661090E-18
   32.98550        4.4652194E-18
   33.14700        4.4639021E-18
   33.30850        4.4625571E-18
   33.47000        4.4619380E-18
   33.63150        4.4626804E-18
   33.79300        4.4648575E-18
   33.95450        4.4678709E-18
   34.11600        4.4707288E-18
   34.27750        4.4725089E-18
   34.43900        4.4727294E-18
   34.60050        4.4714543E-18
   34.76200        4.4691369E-18
   34.92350        4.4663530E-18
   35.08500        4.4635721E-18
   35.24650        4.4610500E-18
   35.40800        4.4588567E-18
   35.56950        4.4569869E-18
   35.73100        4.4555041E-18
   35.89250        4.4546356E-18
   36.05400        4.4547473E-18
   36.21550        4.4561630E-18
   36.37700        4.4588935E-18
   36.53850        4.4624492E-18
   36.70000        4.4659084E-18
   36.86150        4.4682750E-18
   37.02300        4.4689487E-18
   37.18450        4.4680119E-18
   37.34600        4.4661313E-18
   37.50750        4.4641159E-18
   37.66900        4.4624297E-18
   37.83050        4.4609892E-18
   37.99200        4.4593861E-18
   38.15350        4.4573479E-18
   38.31500        4.4551013E-18
   38.47650        4.4533464E-18
   38.63800        4.4528543E-18
   38.79950        4.4539569E-18
   38.96100        4.4562879E-18
   39.12250        4.4589423E-18
   39.28400        4.4609367E-18
   39.44550        4.4616546E-18
   39.60700        4.4610301E-18
   39.76850        4.4594051E-18
   39.93000        4.4572301E-18
   40.09150        4.4548143E-18
   40.25300        4.4522686E-18
   40.41450        4.4496241E-18
   40.57600        4.4470020E-18
   40.73750        4.4447289E-18
   40.89900        4.4433218E-18
   41.06050        4.4433524E-18
   41.22200        4.4452273E-18
   41.38350        4.4489760E-18
   41.54500        4.4541240E-18
   41.70650        4.4597501E-18
   41.86800        4.4647475E-18
   42.02950        4.4682175E-18
   42.19100        4.4697962E-18
   42.35250        4.4697163E-18
   42.51400        4.4685591E-18
   42.67550        4.4668464E-18
   42.83700        4.4647640E-18
   42.99850        4.4622076E-18
   43.16000        4.4591173E-18
   43.32150        4.4558255E-18
   43.48300        4.4531119E-18
   43.64450        4.4518807E-18
   43.80600        4.4526355E-18
   43.96750        4.4551220E-18
   44.12900        4.4583902E-18
   44.29050        4.4612671E-18
   44.45200        4.4629248E-18
   44.61350        4.4631986E-18
   44.77500        4.4624806E-18
   44.93650        4.4613221E-18
   45.09800        4.4600569E-18
   45.25950        4.4586772E-18
   45.42100        4.4569956E-18
   45.58250        4.4549243E-18
   45.74400        4.4526520E-18
   45.90550        4.4506196E-18
   46.06700        4.4493396E-18
   46.22850        4.4491659E-18
   46.39000        4.4501312E-18
   46.55150        4.4519034E-18
   46.71300        4.4538700E-18
   46.87450        4.4553317E-18
   47.03600        4.4557556E-18
   47.19750        4.4549942E-18
   47.35900        4.4533477E-18
   47.52050        4.4513910E-18
   47.68200        4.4496461E-18
   47.84350        4.4482986E-18
   48.00500        4.4471674E-18
   48.16650        4.4459858E-18
   48.32800        4.4447872E-18
   48.48950        4.4440808E-18
   48.65100        4.4446366E-18
   48.81250        4.4469879E-18
   48.97400        4.4509815E-18
   49.13550        4.4557209E-18
   49.29700        4.4599544E-18
   49.45850        4.4626741E-18
   49.62000        4.4635286E-18
   49.78150        4.4628119E-18
   49.94300        4.4610901E-18
   50.10450        4.4587790E-18
   50.26600        4.4559740E-18
   50.42750        4.4526173E-18
   50.58900        4.4488123E-18
   50.75050        4.4450138E-18
   50.91200        4.4419553E-18
   51.07350        4.4403634E-18
   51.23500        4.4406575E-18
   51.39650        4.4427759E-18
   51.55800        4.4461951E-18
   51.71950        4.4500931E-18
   51.88100        4.4535876E-18
   52.04250        4.4559872E-18
   52.20400        4.4569802E-18
   52.36550        4.4566841E-18
   52.52700        4.4555203E-18
   52.68850        4.4539462E-18
   52.85000        4.4522070E-18
   53.01150        4.4502797E-18
   53.17300        4.4480674E-18
   53.33450        4.4457078E-18
   53.49600        4.4437396E-18
   53.65750        4.4429360E-18
   53.81900        4.4438628E-18
   53.98050        4.4464697E-18
   54.14200        4.4500232E-18
   54.30350        4.4534734E-18
   54.46500        4.4560141E-18
   54.62650        4.4574526E-18
   54.78800        4.4581449E-18
   54.94950        4.4585771E-18
   55.11100        4.4589204E-18
   55.27250        4.4588943E-18
   55.43400        4.4580200E-18
   55.59550        4.4560567E-18
   55.75700        4.4532894E-18
   55.91850        4.4504575E-18
   56.08000        4.4483867E-18
   56.24150        4.4475798E-18
   56.40300        4.4480219E-18
   56.56450        4.4492639E-18
   56.72600        4.4506904E-18
   56.88750        4.4517884E-18
   57.04900        4.4523030E-18
   57.21050        4.4522442E-18
   57.37200        4.4517918E-18
   57.53350        4.4511346E-18
   57.69500        4.4503223E-18
   57.85650        4.4492172E-18
   58.01800        4.4475934E-18
   58.17950        4.4453716E-18
   58.34100        4.4428454E-18
   58.50250        4.4407237E-18
   58.66400        4.4398713E-18
   58.82550        4.4408519E-18
   58.98700        4.4435410E-18
   59.14850        4.4470917E-18
   59.31000        4.4503401E-18
   59.47150        4.4524126E-18
   59.63300        4.4531430E-18
   59.79450        4.4530143E-18
   59.95600        4.4526835E-18
   60.11750        4.4524419E-18
   60.27900        4.4520221E-18
   60.44050        4.4508711E-18
   60.60200        4.4486778E-18
   60.76350        4.4457513E-18
   60.92500        4.4429695E-18
   61.08650        4.4413341E-18
   61.24800        4.4414268E-18
   61.40950        4.4431295E-18
   61.57100        4.4457575E-18
   61.73250        4.4484595E-18
   61.89400        4.4506250E-18
   62.05550        4.4520536E-18
   62.21700        4.4528654E-18
   62.37850        4.4532803E-18
   62.54000        4.4534180E-18
   62.70150        4.4532162E-18
   62.86300        4.4524754E-18
   63.02450        4.4509968E-18
   63.18600        4.4487597E-18
   63.34750        4.4460639E-18
   63.50900        4.4435191E-18
   63.67050        4.4418420E-18
   63.83200        4.4415335E-18
   63.99350        4.4426117E-18
   64.15500        4.4445924E-18
   64.31650        4.4467613E-18
   64.47800        4.4485782E-18
   64.63950        4.4499360E-18
   64.80100        4.4510750E-18
   64.96250        4.4522078E-18
   65.12400        4.4531620E-18
   65.28550        4.4533460E-18
   65.44700        4.4521292E-18
   65.60850        4.4493582E-18
   65.77000        4.4456189E-18
   65.93150        4.4420186E-18
   66.09300        4.4396115E-18
   66.25450        4.4388770E-18
   66.41600        4.4395830E-18
   66.57750        4.4411017E-18
   66.73900        4.4429012E-18
   66.90050        4.4448546E-18
   67.06200        4.4471612E-18
   67.22350        4.4499802E-18
   67.38500        4.4530954E-18
   67.54650        4.4558656E-18
   67.70800        4.4575018E-18
   67.86950        4.4574613E-18
   68.03100        4.4557114E-18
   68.19250        4.4527339E-18
   68.35400        4.4493044E-18
   68.51550        4.4461951E-18
   68.67700        4.4439199E-18
   68.83850        4.4426092E-18
   69.00000        4.4420401E-18
   69.16150        4.4418197E-18
   69.32300        4.4416414E-18
   69.48450        4.4414781E-18
   69.64600        4.4415827E-18
   69.80750        4.4422668E-18
   69.96900        4.4435779E-18
   70.13050        4.4451214E-18
   70.29200        4.4461876E-18
   70.45350        4.4461678E-18
   70.61500        4.4449981E-18
   70.77650        4.4433065E-18
   70.93800        4.4421100E-18
   71.09950        4.4422403E-18
   71.26100        4.4438765E-18
   71.42250        4.4465156E-18
   71.58400        4.4493756E-18
   71.74550        4.4519154E-18
   71.90700        4.4541008E-18
   72.06850        4.4562403E-18
   72.23000        4.4585552E-18
   72.39150        4.4608233E-18
   72.55300        4.4623718E-18
   72.71450        4.4624272E-18
   72.87600        4.4605636E-18
   73.03750        4.4569554E-18
   73.19900        4.4522905E-18
   73.36050        4.4474354E-18
   73.52200        4.4431055E-18
   73.68350        4.4397100E-18
   73.84500        4.4373926E-18
   74.00650        4.4361684E-18
   74.16800        4.4360207E-18
   74.32950        4.4369232E-18
   74.49100        4.4388046E-18
   74.65250        4.4414855E-18
   74.81400        4.4446296E-18
   74.97550        4.4477398E-18
   75.13700        4.4502317E-18
   75.29850        4.4516048E-18
   75.46000        4.4516362E-18
   75.62150        4.4505063E-18
   75.78300        4.4487560E-18
   75.94450        4.4470524E-18
   76.10600        4.4458894E-18
   76.26750        4.4453993E-18
   76.42900        4.4454130E-18
   76.59050        4.4457256E-18
   76.75200        4.4463497E-18
   76.91350        4.4475272E-18
   77.07500        4.4494587E-18
   77.23650        4.4519613E-18
   77.39800        4.4543461E-18
   77.55950        4.4556704E-18
   77.72100        4.4552390E-18
   77.88250        4.4530127E-18
   78.04400        4.4496456E-18
   78.20550        4.4461070E-18
   78.36700        4.4431411E-18
   78.52850        4.4409272E-18
   78.69000        4.4391615E-18
   78.85150        4.4374770E-18
   79.01300        4.4358723E-18
   79.17450        4.4348209E-18
   79.33600        4.4349859E-18
   79.49750        4.4367408E-18
   79.65900        4.4398328E-18
   79.82050        4.4434132E-18
   79.98200        4.4464060E-18
   80.14350        4.4479983E-18
   80.30500        4.4479780E-18
   80.46650        4.4467621E-18
   80.62800        4.4451148E-18
   80.78950        4.4437387E-18
   80.95100        4.4429591E-18
   81.11250        4.4426589E-18
   81.27400        4.4424864E-18
   81.43550        4.4421948E-18
   81.59700        4.4419078E-18
   81.75850        4.4421336E-18
   81.92000        4.4434927E-18
   82.08150        4.4462786E-18
   82.24300        4.4501333E-18
   82.40450        4.4540789E-18
   82.56600        4.4569496E-18
   82.72750        4.4579940E-18
   82.88900        4.4572602E-18
   83.05050        4.4555116E-18
   83.21200        4.4537116E-18
   83.37350        4.4524341E-18
   83.53500        4.4515974E-18
   83.69650        4.4506974E-18
   83.85800        4.4493545E-18
   84.01950        4.4477584E-18
   84.18100        4.4466641E-18
   84.34250        4.4469035E-18
   84.50400        4.4487560E-18
   84.66550        4.4516276E-18
   84.82700        4.4543014E-18
   84.98850        4.4555964E-18
   85.15000        4.4549983E-18
   85.31150        4.4528555E-18
   85.47300        4.4500361E-18
   85.63450        4.4473266E-18
   85.79600        4.4449874E-18
   85.95750        4.4427395E-18
   86.11900        4.4401666E-18
   86.28050        4.4372185E-18
   86.44200        4.4344569E-18
   86.60350        4.4328601E-18
   86.76500        4.4333005E-18
   86.92650        4.4360141E-18
   87.08800        4.4403945E-18
   87.24950        4.4452339E-18
   87.41100        4.4492800E-18
   87.57250        4.4518058E-18
   87.73400        4.4528923E-18
   87.89550        4.4532662E-18
   88.05700        4.4537791E-18
   88.21850        4.4548271E-18
   88.38000        4.4560675E-18
   88.54150        4.4566390E-18
   88.70300        4.4557759E-18
   88.86450        4.4534312E-18
   89.02600        4.4504745E-18
   89.18750        4.4482717E-18
   89.34900        4.4478746E-18
   89.51050        4.4493110E-18
   89.67200        4.4514774E-18
   89.83350        4.4527517E-18
   89.99500        4.4519642E-18
   90.15650        4.4491076E-18
   90.31800        4.4453021E-18
   90.47950        4.4420422E-18
   90.64100        4.4402298E-18
   90.80250        4.4396653E-18
   90.96400        4.4393228E-18
   91.12550        4.4381987E-18
   91.28700        4.4361233E-18
   91.44850        4.4339788E-18
   91.61000        4.4331843E-18
   91.77150        4.4348023E-18
   91.93300        4.4388526E-18
   92.09450        4.4442607E-18
   92.25600        4.4494467E-18
   92.41750        4.4531554E-18
   92.57900        4.4550099E-18
   92.74050        4.4555087E-18
   92.90200        4.4555252E-18
   93.06350        4.4556803E-18
   93.22500        4.4559595E-18
   93.38650        4.4557945E-18
   93.54800        4.4545173E-18
   93.70950        4.4519200E-18
   93.87100        4.4485620E-18
   94.03250        4.4456036E-18
   94.19400        4.4442181E-18
   94.35550        4.4449158E-18
   94.51700        4.4471877E-18
   94.67850        4.4497478E-18
   94.84000        4.4512516E-18
   95.00150        4.4510734E-18
   95.16300        4.4496307E-18
   95.32450        4.4480289E-18
   95.48600        4.4472439E-18
   95.64750        4.4474011E-18
   95.80900        4.4476753E-18
   95.97050        4.4469197E-18
   96.13200        4.4445936E-18
   96.29350        4.4413093E-18
   96.45500        4.4385680E-18
   96.61650        4.4378426E-18
   96.77800        4.4396206E-18
   96.93950        4.4430807E-18
   97.10100        4.4466153E-18
   97.26250        4.4488313E-18
   97.42400        4.4493507E-18
   97.58550        4.4489078E-18
   97.74700        4.4487105E-18
   97.90850        4.4495422E-18
   98.07000        4.4512193E-18
   98.23150        4.4527290E-18
   98.39300        4.4529279E-18
   98.55450        4.4513124E-18
   98.71600        4.4483772E-18
   98.87750        4.4453782E-18
   99.03900        4.4436552E-18
   99.20050        4.4439211E-18
   99.36200        4.4459055E-18
   99.52350        4.4485389E-18
   99.68500        4.4505733E-18
   99.84650        4.4512967E-18
   100.0080        4.4509195E-18
   100.1695        4.4503872E-18
   100.3310        4.4507106E-18
   100.4925        4.4522326E-18
   100.6540        4.4543118E-18
   100.8155        4.4556741E-18
   100.9770        4.4552283E-18
   101.1385        4.4528361E-18
   101.3000        4.4494918E-18
   101.4615        4.4467621E-18
   101.6230        4.4458191E-18
   101.7845        4.4467302E-18
   101.9460        4.4484777E-18
   102.1075        4.4496903E-18
   102.2690        4.4495613E-18
   102.4305        4.4483077E-18
   102.5920        4.4468944E-18
   102.7535        4.4462678E-18
   102.9150        4.4466595E-18
   103.0765        4.4474462E-18
   103.2380        4.4476153E-18
   103.3995        4.4464933E-18
   103.5610        4.4442189E-18
   103.7225        4.4416745E-18
   103.8840        4.4399441E-18
   104.0455        4.4396930E-18
   104.2070        4.4408473E-18
   104.3685        4.4427337E-18
   104.5300        4.4445295E-18
   104.6915        4.4457252E-18
   104.8530        4.4463332E-18
   105.0145        4.4467447E-18
   105.1760        4.4473672E-18
   105.3375        4.4482622E-18
   105.4990        4.4490348E-18
   105.6605        4.4490650E-18
   105.8220        4.4479400E-18
   105.9835        4.4458265E-18
   106.1450        4.4434865E-18
   106.3065        4.4419057E-18
   106.4680        4.4417390E-18
   106.6295        4.4429355E-18
   106.7910        4.4448029E-18
   106.9525        4.4464862E-18
   107.1140        4.4475467E-18
   107.2755        4.4482353E-18
   107.4370        4.4492552E-18
   107.5985        4.4511643E-18
   107.7600        4.4538444E-18
   107.9215        4.4564422E-18
   108.0830        4.4578351E-18
   108.2445        4.4573223E-18
   108.4060        4.4550736E-18
   108.5675        4.4520345E-18
   108.7290        4.4493553E-18
   108.8905        4.4477286E-18
   109.0520        4.4470495E-18
   109.2135        4.4466103E-18
   109.3750        4.4456743E-18
   109.5365        4.4440365E-18
   109.6980        4.4422076E-18
   109.8595        4.4410889E-18
   110.0210        4.4413771E-18
   110.1825        4.4430782E-18
   110.3440        4.4454547E-18
   110.5055        4.4474346E-18
   110.6670        4.4482204E-18
   110.8285        4.4477336E-18
   110.9900        4.4466169E-18
   111.1515        4.4458112E-18
   111.3130        4.4459816E-18
   111.4745        4.4471587E-18
   111.6360        4.4488106E-18
   111.7975        4.4502689E-18
   111.9590        4.4511871E-18
   112.1205        4.4517330E-18
   112.2820        4.4523906E-18
   112.4435        4.4535454E-18
   112.6050        4.4551497E-18
   112.7665        4.4566965E-18
   112.9280        4.4575154E-18
   113.0895        4.4571804E-18
   113.2510        4.4557705E-18
   113.4125        4.4538072E-18
   113.5740        4.4519336E-18
   113.7355        4.4505456E-18
   113.8970        4.4496092E-18
   114.0585        4.4487647E-18
   114.2200        4.4476207E-18
   114.3815        4.4460515E-18
   114.5430        4.4442958E-18
   114.7045        4.4428044E-18
   114.8660        4.4419330E-18
   115.0275        4.4416691E-18
   115.1890        4.4416030E-18
   115.3505        4.4411728E-18
   115.5120        4.4400545E-18
   115.6735        4.4384129E-18
   115.8350        4.4368430E-18
   115.9965        4.4359893E-18
   116.1580        4.4361043E-18
   116.3195        4.4368566E-18
   116.4810        4.4375465E-18
   116.6425        4.4376089E-18
   116.8040        4.4370481E-18
   116.9655        4.4365005E-18
   117.1270        4.4368396E-18
   117.2885        4.4385970E-18
   117.4500        4.4415848E-18
   117.6115        4.4450031E-18
   117.7730        4.4479268E-18
   117.9345        4.4498421E-18
   118.0960        4.4508690E-18
   118.2575        4.4515490E-18
   118.4190        4.4523906E-18
   118.5805        4.4535069E-18
   118.7420        4.4545636E-18