  -27.90000       -2.8293564E-18
  -27.73850       -2.8332324E-18
  -27.57700       -2.8390580E-18
  -27.41550       -2.8441919E-18
  -27.25400       -2.8468004E-18
  -27.09250       -2.8468829E-18
  -26.93100       -2.8461796E-18
  -26.76950       -2.8470322E-18
  -26.60800       -2.8508987E-18
  -26.44650       -2.8574080E-18
  -26.28500       -2.8645403E-18
  -26.12350       -2.8698128E-18
  -25.96200       -2.8717606E-18
  -25.80050       -2.8708153E-18
  -25.63900       -2.8690532E-18
  -25.47750       -2.8689620E-18
  -25.31600       -2.8719670E-18
  -25.15450       -2.8776046E-18
  -24.99300       -2.8838289E-18
  -24.83150       -2.8882682E-18
  -24.67000       -2.8896560E-18
  -24.50850       -2.8885865E-18
  -24.34700       -2.8871337E-18
  -24.18550       -2.8875779E-18
  -24.02400       -2.8910171E-18
  -23.86250       -2.8967040E-18
  -23.70100       -2.9025094E-18
  -23.53950       -2.9062207E-18
  -23.37800       -2.9068882E-18
  -23.21650       -2.9053956E-18
  -23.05500       -2.9039129E-18
  -22.89350       -2.9045744E-18
  -22.73200       -2.9081807E-18
  -22.57050       -2.9137170E-18
  -22.40900       -2.9189748E-18
  -22.24750       -2.9218952E-18
  -22.08600       -2.9218122E-18
  -21.92450       -2.9198448E-18
  -21.76300       -2.9182090E-18
  -21.60150       -2.9188710E-18
  -21.44000       -2.9223627E-18
  -21.27850       -2.9274774E-18
  -21.11700       -2.9320275E-18
  -20.95550       -2.9341941E-18
  -20.79400       -2.9336471E-18
  -20.63250       -2.9317525E-18
  -20.47100       -2.9307435E-18
  -20.30950       -2.9323518E-18
  -20.14800       -2.9367344E-18
  -19.98650       -2.9423513E-18
  -19.82500       -2.9468698E-18
  -19.66350       -2.9485535E-18
  -19.50200       -2.9473045E-18
  -19.34050       -2.9447224E-18
  -19.17900       -2.9431398E-18
  -19.01750       -2.9442181E-18
  -18.85600       -2.9479503E-18
  -18.69450       -2.9526810E-18
  -18.53300       -2.9561336E-18
  -18.37150       -2.9568264E-18
  -18.21000       -2.9550095E-18
  -18.04850       -2.9525476E-18
  -17.88700       -2.9518093E-18
  -17.72550       -2.9542216E-18
  -17.56400       -2.9593764E-18
  -17.40250       -2.9652312E-18
  -17.24100       -2.9692957E-18
  -17.07950       -2.9700913E-18
  -16.91800       -2.9680076E-18
  -16.75650       -2.9650384E-18
  -16.59500       -2.9635551E-18
  -16.43350       -2.9648635E-18
  -16.27200       -2.9684212E-18
  -16.11050       -2.9721853E-18
  -15.94900       -2.9738804E-18
  -15.78750       -2.9724249E-18
  -15.62600       -2.9686468E-18
  -15.46450       -2.9648626E-18
  -15.30300       -2.9635555E-18
  -15.14150       -2.9659529E-18
  -14.98000       -2.9713314E-18
  -14.81850       -2.9774790E-18
  -14.65700       -2.9820225E-18
  -14.49550       -2.9838315E-18
  -14.33400       -2.9836616E-18
  -14.17250       -2.9836500E-18
  -14.01100       -2.9859737E-18
  -13.84950       -2.9914675E-18
  -13.68800       -2.9990415E-18
  -13.52650       -3.0062543E-18
  -13.36500       -3.0107060E-18
  -13.20350       -3.0114186E-18
  -13.04200       -3.0093796E-18
  -12.88050       -3.0069175E-18
  -12.71900       -3.0062860E-18
  -12.55750       -3.0083136E-18
  -12.39600       -3.0119298E-18
  -12.23450       -3.0148477E-18
  -12.07300       -3.0149877E-18
  -11.91150       -3.0117772E-18
  -11.75000       -3.0065350E-18
  -11.58850       -3.0017119E-18
  -11.42700       -2.9994560E-18
  -11.26550       -3.0003708E-18
  -11.10400       -3.0032157E-18
  -10.94250       -3.0057173E-18
  -10.78100       -3.0059857E-18
  -10.61950       -3.0036808E-18
  -10.45800       -3.0002283E-18
  -10.29650       -2.9979629E-18
  -10.13500       -2.9987208E-18
  -9.973500       -3.0027312E-18
  -9.812000       -3.0084660E-18
  -9.650500       -3.0135352E-18
  -9.489000       -3.0160856E-18
  -9.327500       -3.0158678E-18
  -9.166000       -3.0143332E-18
  -9.004500       -3.0137075E-18
  -8.843000       -3.0156110E-18
  -8.681500       -3.0200542E-18
  -8.520000       -3.0254209E-18
  -8.358500       -3.0294605E-18
  -8.197000       -3.0306762E-18
  -8.035500       -3.0292816E-18
  -7.874000       -3.0271132E-18
  -7.712500       -3.0265451E-18
  -7.551000       -3.0290541E-18
  -7.389500       -3.0343125E-18
  -7.228000       -3.0403596E-18
  -7.066500       -3.0447652E-18
  -6.905000       -3.0460750E-18
  -6.743500       -3.0446562E-18
  -6.582000       -3.0424369E-18
  -6.420500       -3.0416912E-18
  -6.259000       -3.0436260E-18
  -6.097500       -3.0476374E-18
  -5.936000       -3.0516994E-18
  -5.774500       -3.0536448E-18
  -5.613000       -3.0525547E-18
  -5.451500       -3.0493895E-18
  -5.290000       -3.0464843E-18
  -5.128500       -3.0461906E-18
  -4.967000       -3.0494915E-18
  -4.805500       -3.0554112E-18
  -4.644000       -3.0615772E-18
  -4.482500       -3.0656004E-18
  -4.321000       -3.0664460E-18
  -4.159500       -3.0649904E-18
  -3.998000       -3.0634239E-18
  -3.836500       -3.0638762E-18
  -3.675000       -3.0670809E-18
  -3.513500       -3.0718922E-18
  -3.352000       -3.0759489E-18
  -3.190500       -3.0771044E-18
  -3.029000       -3.0747668E-18
  -2.867500       -3.0703323E-18
  -2.706000       -3.0664363E-18
  -2.544500       -3.0654387E-18
  -2.383000       -3.0680439E-18
  -2.221500       -3.0728947E-18
  -2.060000       -3.0773906E-18
  -1.898500       -3.0792580E-18
  -1.737000       -3.0779275E-18
  -1.575500       -3.0748826E-18
  -1.414000       -3.0727615E-18
  -1.252500       -3.0737562E-18
  -1.091000       -3.0782716E-18
 -0.9295000       -3.0846690E-18
 -0.7680000       -3.0902442E-18
 -0.6065000       -3.0928492E-18
 -0.4450000       -3.0921610E-18
 -0.2835000       -3.0898285E-18
 -0.1220000       -3.0884223E-18
  3.9500002E-02   -3.0898215E-18
  0.2010000       -3.0940302E-18
  0.3625000       -3.0991337E-18
  0.5240000       -3.1024170E-18
  0.6855000       -3.1019742E-18
  0.8470000       -3.0978416E-18
   1.008500       -3.0919873E-18
   1.170000       -3.0871704E-18
   1.331500       -3.0853624E-18
   1.493000       -3.0866683E-18
   1.654500       -3.0893786E-18
   1.816000       -3.0911018E-18
   1.977500       -3.0902854E-18
   2.139000       -3.0871979E-18
   2.300500       -3.0837891E-18
   2.462000       -3.0825049E-18
   2.623500       -3.0847852E-18
   2.785000       -3.0901480E-18
   2.946500       -3.0964321E-18
   3.108000       -3.1010505E-18
   3.269500       -3.1025072E-18
   3.431000       -3.1012484E-18
   3.592500       -3.0993465E-18
   3.754000       -3.0992071E-18
   3.915500       -3.1020925E-18
   4.077000       -3.1073687E-18
   4.238500       -3.1129286E-18
   4.400000       -3.1165215E-18
   4.561500       -3.1171602E-18
   4.723000       -3.1157375E-18
   4.884500       -3.1144709E-18
   5.046000       -3.1155282E-18
   5.207500       -3.1196821E-18
   5.369000       -3.1258179E-18
   5.530500       -3.1315914E-18
   5.692000       -3.1348247E-18
   5.853500       -3.1347868E-18
   6.015000       -3.1325865E-18
   6.176500       -3.1304485E-18
   6.338000       -3.1303319E-18
   6.499500       -3.1327307E-18
   6.661000       -3.1363878E-18
   6.822500       -3.1390830E-18
   6.984000       -3.1390123E-18
   7.145500       -3.1359263E-18
   7.307000       -3.1313414E-18
   7.468500       -3.1276845E-18
   7.630000       -3.1268902E-18
   7.791500       -3.1292764E-18
   7.953000       -3.1333748E-18
   8.114500       -3.1368312E-18
   8.276000       -3.1378267E-18
   8.437500       -3.1361856E-18
   8.599000       -3.1334791E-18
   8.760500       -3.1320625E-18
   8.922000       -3.1336122E-18
   9.083500       -3.1380598E-18
   9.245000       -3.1435779E-18
   9.406500       -3.1476462E-18
   9.568000       -3.1485561E-18
   9.729500       -3.1464414E-18
   9.891000       -3.1431991E-18
   10.05250       -3.1413425E-18
   10.21400       -3.1424871E-18
   10.37550       -3.1463988E-18
   10.53700       -3.1511677E-18
   10.69850       -3.1543983E-18
   10.86000       -3.1546675E-18
   11.02150       -3.1523783E-18
   11.18300       -3.1495063E-18
   11.34450       -3.1484198E-18
   11.50600       -3.1504973E-18
   11.66750       -3.1553646E-18
   11.82900       -3.1611747E-18
   11.99050       -3.1657298E-18
   12.15200       -3.1677672E-18
   12.31350       -3.1676491E-18
   12.47500       -3.1670864E-18
   12.63650       -3.1680691E-18
   12.79800       -3.1716481E-18
   12.95950       -3.1772653E-18
   13.12100       -3.1830137E-18
   13.28250       -3.1866792E-18
   13.44400       -3.1869544E-18
   13.60550       -3.1841422E-18
   13.76700       -3.1799410E-18
   13.92850       -3.1764540E-18
   14.09000       -3.1750066E-18
   14.25150       -3.1754587E-18
   14.41300       -3.1764128E-18
   14.57450       -3.1761661E-18
   14.73600       -3.1738267E-18
   14.89750       -3.1699170E-18
   15.05900       -3.1661016E-18
   15.22050       -3.1642235E-18
   15.38200       -3.1652246E-18
   15.54350       -3.1686065E-18
   15.70500       -3.1727350E-18
   15.86650       -3.1757854E-18
   16.02800       -3.1767574E-18
   16.18950       -3.1759815E-18
   16.35100       -3.1748478E-18
   16.51250       -3.1749458E-18
   16.67400       -3.1771344E-18
   16.83550       -3.1810717E-18
   16.99700       -3.1854527E-18
   17.15850       -3.1887868E-18
   17.32000       -3.1902505E-18
   17.48150       -3.1901389E-18
   17.64300       -3.1896603E-18
   17.80450       -3.1902104E-18
   17.96600       -3.1925315E-18
   18.12750       -3.1962453E-18
   18.28900       -3.2000243E-18
   18.45050       -3.2023187E-18
   18.61200       -3.2022356E-18
   18.77350       -3.2000634E-18
   18.93500       -3.1971374E-18
   19.09650       -3.1950926E-18
   19.25800       -3.1949390E-18
   19.41950       -3.1964873E-18
   19.58100       -3.1984696E-18
   19.74250       -3.1993185E-18
   19.90400       -3.1981468E-18
   20.06550       -3.1953573E-18
   20.22700       -3.1924885E-18
   20.38850       -3.1913563E-18
   20.55000       -3.1929860E-18
   20.71150       -3.1969668E-18
   20.87300       -3.2016419E-18
   21.03450       -3.2050575E-18
   21.19600       -3.2061186E-18
   21.35750       -3.2052808E-18
   21.51900       -3.2043256E-18
   21.68050       -3.2053170E-18
   21.84200       -3.2093361E-18
   22.00350       -3.2157403E-18
   22.16500       -3.2224306E-18
   22.32650       -3.2269991E-18
   22.48800       -3.2281137E-18
   22.64950       -3.2263181E-18
   22.81100       -3.2237439E-18
   22.97250       -3.2228574E-18
   23.13400       -3.2249592E-18
   23.29550       -3.2293241E-18
   23.45700       -3.2335489E-18
   23.61850       -3.2349628E-18
   23.78000       -3.2323067E-18
   23.94150       -3.2266550E-18
   24.10300       -3.2209749E-18
   24.26450       -3.2184996E-18
   24.42600       -3.2208417E-18
   24.58750       -3.2269869E-18
   24.74900       -3.2338299E-18
   24.91050       -3.2380080E-18
   25.07200       -3.2379584E-18
   25.23350       -3.2349346E-18
   25.39500       -3.2322961E-18
   25.55650       -3.2334296E-18
   25.71800       -3.2395551E-18
   25.87950       -3.2487837E-18
   26.04100       -3.2570772E-18
   26.20250       -3.2605752E-18
   26.36400       -3.2579038E-18
   26.52550       -3.2510338E-18
   26.68700       -3.2441292E-18
   26.84850       -3.2410421E-18
   27.01000       -3.2429730E-18
   27.17150       -3.2477381E-18
   27.33300       -3.2511250E-18
   27.49450       -3.2495263E-18
   27.65600       -3.2422655E-18
   27.81750       -3.2321640E-18
   27.97900       -3.2239726E-18
   28.14050       -3.2215883E-18
   28.30200       -3.2257147E-18
   28.46350       -3.2333988E-18
   28.62500       -3.2397697E-18
   28.78650       -3.2409741E-18
   28.94800       -3.2365503E-18
   29.10950       -3.2297592E-18
   29.27100       -3.2256251E-18
   29.43250       -3.2278339E-18
   29.59400       -3.2363787E-18
   29.75550       -3.2474426E-18
   29.91700       -3.2556534E-18
   30.07850       -3.2573717E-18
   30.24000       -3.2529870E-18
   30.40150       -3.2467377E-18
   30.56300       -3.2441039E-18
   30.72450       -3.2483457E-18
   30.88600       -3.2583689E-18
   31.04750       -3.2692998E-18
   31.20900       -3.2754681E-18
   31.37050       -3.2739529E-18
   31.53200       -3.2664572E-18
   31.69350       -3.2582983E-18
   31.85500       -3.2551220E-18
   32.01650       -3.2593722E-18
   32.17800       -3.2687473E-18
   32.33950       -3.2776242E-18
   32.50100       -3.2805857E-18
   32.66250       -3.2758526E-18
   32.82400       -3.2664570E-18
   32.98550       -3.2584152E-18
   33.14700       -3.2570009E-18
   33.30850       -3.2634312E-18
   33.47000       -3.2740284E-18
   33.63150       -3.2824076E-18
   33.79300       -3.2833871E-18
   33.95450       -3.2762374E-18
   34.11600       -3.2652357E-18
   34.27750       -3.2571347E-18
   34.43900       -3.2570419E-18
   34.60050       -3.2652413E-18
   34.76200       -3.2769478E-18
   34.92350       -3.2852187E-18
   35.08500       -3.2852756E-18
   35.24650       -3.2775634E-18
   35.40800       -3.2675909E-18
   35.56950       -3.2625602E-18
   35.73100       -3.2668173E-18
   35.89250       -3.2789636E-18
   36.05400       -3.2924994E-18
   36.21550       -3.2997031E-18
   36.37700       -3.2963913E-18
   36.53850       -3.2845851E-18
   36.70000       -3.2713788E-18
   36.86150       -3.2646492E-18
   37.02300       -3.2682483E-18
   37.18450       -3.2796710E-18
   37.34600       -3.2916664E-18
   37.50750       -3.2968082E-18
   37.66900       -3.2921981E-18
   37.83050       -3.2813603E-18
   37.99200       -3.2721340E-18
   38.15350       -3.2718389E-18
   38.31500       -3.2826894E-18
   38.47650       -3.3002891E-18
   38.63800       -3.3161567E-18
   38.79950       -3.3227597E-18
   38.96100       -3.3179966E-18
   39.12250       -3.3064039E-18
   39.28400       -3.2963462E-18
   39.44550       -3.2948719E-18
   39.60700       -3.3033753E-18
   39.76850       -3.3167062E-18
   39.93000       -3.3263100E-18
   40.09150       -3.3255101E-18
   40.25300       -3.3136986E-18
   40.41450       -3.2968373E-18
   40.57600       -3.2839136E-18
   40.73750       -3.2814830E-18
   40.89900       -3.2896588E-18
   41.06050       -3.3020434E-18
   41.22200       -3.3096946E-18
   41.38350       -3.3067070E-18
   41.54500       -3.2939527E-18
   41.70650       -3.2786298E-18
   41.86800       -3.2698710E-18
   42.02950       -3.2731206E-18
   42.19100       -3.2867844E-18
   42.35250       -3.3032341E-18
   42.51400       -3.3135381E-18
   42.67550       -3.3129655E-18
   42.83700       -3.3038417E-18
   42.99850       -3.2940011E-18
   43.16000       -3.2918136E-18
   43.32150       -3.3008851E-18
   43.48300       -3.3177197E-18
   43.64450       -3.3337864E-18
   43.80600       -3.3407108E-18
   43.96750       -3.3353978E-18
   44.12900       -3.3219356E-18
   44.29050       -3.3091158E-18
   44.45200       -3.3050922E-18
   44.61350       -3.3124363E-18
   44.77500       -3.3266090E-18
   44.93650       -3.3387967E-18
   45.09800       -3.3413822E-18
   45.25950       -3.3327088E-18
   45.42100       -3.3181775E-18
   45.58250       -3.3069533E-18
   45.74400       -3.3062622E-18
   45.90550       -3.3167895E-18
   46.06700       -3.3320781E-18
   46.22850       -3.3423837E-18
   46.39000       -3.3406688E-18
   46.55150       -3.3270395E-18
   46.71300       -3.3088339E-18
   46.87450       -3.2962264E-18
   47.03600       -3.2960186E-18
   47.19750       -3.3074699E-18
   47.35900       -3.3227911E-18
   47.52050       -3.3320390E-18
   47.68200       -3.3293829E-18
   47.84350       -3.3168210E-18
   48.00500       -3.3029988E-18
   48.16650       -3.2978301E-18
   48.32800       -3.3062558E-18
   48.48950       -3.3250129E-18
   48.65100       -3.3444504E-18
   48.81250       -3.3543075E-18
   48.97400       -3.3499196E-18
   49.13550       -3.3350402E-18
   49.29700       -3.3195399E-18
   49.45850       -3.3133758E-18
   49.62000       -3.3205228E-18
   49.78150       -3.3365778E-18
   49.94300       -3.3515177E-18
   50.10450       -3.3559290E-18
   50.26600       -3.3469150E-18
   50.42750       -3.3300403E-18
   50.58900       -3.3160602E-18
   50.75050       -3.3143843E-18
   50.91200       -3.3272474E-18
   51.07350       -3.3482013E-18
   51.23500       -3.3659257E-18
   51.39650       -3.3710850E-18
   51.55800       -3.3620249E-18
   51.71950       -3.3457779E-18
   51.88100       -3.3337006E-18
   52.04250       -3.3344114E-18
   52.20400       -3.3483895E-18
   52.36550       -3.3676142E-18
   52.52700       -3.3805008E-18
   52.68850       -3.3790903E-18
   52.85000       -3.3640069E-18
   53.01150       -3.3440929E-18
   53.17300       -3.3309374E-18
   53.33450       -3.3317067E-18
   53.49600       -3.3447273E-18
   53.65750       -3.3605645E-18
   53.81900       -3.3679112E-18
   53.98050       -3.3606462E-18
   54.14200       -3.3417034E-18
   54.30350       -3.3213746E-18
   54.46500       -3.3110898E-18
   54.62650       -3.3165013E-18
   54.78800       -3.3341074E-18
   54.94950       -3.3534779E-18
   55.11100       -3.3637107E-18
   55.27250       -3.3601452E-18
   55.43400       -3.3471884E-18
   55.59550       -3.3354977E-18
   55.75700       -3.3352232E-18
   55.91850       -3.3494826E-18
   56.08000       -3.3721461E-18
   56.24150       -3.3913799E-18
   56.40300       -3.3968360E-18
   56.56450       -3.3860419E-18
   56.72600       -3.3660043E-18
   56.88750       -3.3489559E-18
   57.04900       -3.3448632E-18
   57.21050       -3.3553337E-18
   57.37200       -3.3727454E-18
   57.53350       -3.3851564E-18
   57.69500       -3.3839237E-18
   57.85650       -3.3692481E-18
   58.01800       -3.3501286E-18
   58.17950       -3.3387404E-18
   58.34100       -3.3427431E-18
   58.50250       -3.3603462E-18
   58.66400       -3.3812412E-18
   58.82550       -3.3928529E-18
   58.98700       -3.3880400E-18
   59.14850       -3.3694871E-18
   59.31000       -3.3480652E-18
   59.47150       -3.3361776E-18
   59.63300       -3.3401890E-18
   59.79450       -3.3566172E-18
   59.95600       -3.3744240E-18
   60.11750       -3.3819881E-18
   60.27900       -3.3744382E-18
   60.44050       -3.3567893E-18
   60.60200       -3.3409025E-18
   60.76350       -3.3381014E-18
   60.92500       -3.3520134E-18
   61.08650       -3.3760833E-18
   61.24800       -3.3973941E-18
   61.40950       -3.4044903E-18
   61.57100       -3.3943985E-18
   61.73250       -3.3744672E-18
   61.89400       -3.3578446E-18
   62.05550       -3.3553649E-18
   62.21700       -3.3688723E-18
   62.37850       -3.3901451E-18
   62.54000       -3.4060979E-18
   62.70150       -3.4070174E-18
   62.86300       -3.3926740E-18
   63.02450       -3.3724776E-18
   63.18600       -3.3595771E-18
   63.34750       -3.3626042E-18
   63.50900       -3.3802285E-18
   63.67050       -3.4019399E-18
   63.83200       -3.4145497E-18
   63.99350       -3.4103579E-18
   64.15500       -3.3919141E-18
   64.31650       -3.3704429E-18
   64.47800       -3.3589358E-18
   64.63950       -3.3642066E-18
   64.80100       -3.3828190E-18
   64.96250       -3.4033486E-18
   65.12400       -3.4135244E-18
   65.28550       -3.4077939E-18
   65.44700       -3.3906274E-18
   65.60850       -3.3735649E-18
   65.77000       -3.3678712E-18
   65.93150       -3.3774035E-18
   66.09300       -3.3961176E-18
   66.25450       -3.4117790E-18
   66.41600       -3.4135798E-18
   66.57750       -3.3989319E-18
   66.73900       -3.3751982E-18
   66.90050       -3.3552737E-18
   67.06200       -3.3497616E-18
   67.22350       -3.3606152E-18
   67.38500       -3.3801768E-18
   67.54650       -3.3961738E-18
   67.70800       -3.3994923E-18
   67.86950       -3.3898341E-18
   68.03100       -3.3757272E-18
   68.19250       -3.3689220E-18
   68.35400       -3.3767525E-18
   68.51550       -3.3973050E-18
   68.67700       -3.4204359E-18
   68.83850       -3.4339779E-18
   69.00000       -3.4312178E-18
   69.16150       -3.4149804E-18
   69.32300       -3.3958190E-18
   69.48450       -3.3854999E-18
   69.64600       -3.3898581E-18
   69.80750       -3.4054246E-18
   69.96900       -3.4218417E-18
   70.13050       -3.4284717E-18
   70.29200       -3.4210670E-18
   70.45350       -3.4043683E-18
   70.61500       -3.3890711E-18
   70.77650       -3.3850927E-18
   70.93800       -3.3953396E-18
   71.09950       -3.4138215E-18
   71.26100       -3.4292714E-18
   71.42250       -3.4320503E-18
   71.58400       -3.4200792E-18
   71.74550       -3.4001551E-18
   71.90700       -3.3838185E-18
   72.06850       -3.3803151E-18
   72.23000       -3.3909982E-18
   72.39150       -3.4086227E-18
   72.55300       -3.4219428E-18
   72.71450       -3.4227328E-18
   72.87600       -3.4108546E-18
   73.03750       -3.3942552E-18
   73.19900       -3.3839241E-18
   73.36050       -3.3870025E-18
   73.52200       -3.4023241E-18
   73.68350       -3.4211485E-18
   73.84500       -3.4325774E-18
   74.00650       -3.4302626E-18
   74.16800       -3.4162497E-18
   74.32950       -3.3996490E-18
   74.49100       -3.3910335E-18
   74.65250       -3.3960551E-18
   74.81400       -3.4121496E-18
   74.97550       -3.4302462E-18
   75.13700       -3.4403401E-18
   75.29850       -3.4374886E-18
   75.46000       -3.4246280E-18
   75.62150       -3.4105699E-18
   75.78300       -3.4044709E-18
   75.94450       -3.4101774E-18
   76.10600       -3.4238854E-18
   76.26750       -3.4365051E-18
   76.42900       -3.4392726E-18
   76.59050       -3.4291858E-18
   76.75200       -3.4109514E-18
   76.91350       -3.3942564E-18
   77.07500       -3.3880050E-18
   77.23650       -3.3950408E-18
   77.39800       -3.4105744E-18
   77.55950       -3.4252635E-18
   77.72100       -3.4310151E-18
   77.88250       -3.4258804E-18
   78.04400       -3.4150261E-18
   78.20550       -3.4072442E-18
   78.36700       -3.4092483E-18
   78.52850       -3.4213625E-18
   78.69000       -3.4372632E-18
   78.85150       -3.4478900E-18
   79.01300       -3.4470419E-18
   79.17450       -3.4351795E-18
   79.33600       -3.4191200E-18
   79.49750       -3.4078946E-18
   79.65900       -3.4073642E-18
   79.82050       -3.4168902E-18
   79.98200       -3.4300049E-18
   80.14350       -3.4385631E-18
   80.30500       -3.4377804E-18
   80.46650       -3.4290882E-18
   80.62800       -3.4191376E-18
   80.78950       -3.4155900E-18
   80.95100       -3.4222904E-18
   81.11250       -3.4367828E-18
   81.27400       -3.4517010E-18
   81.43550       -3.4592182E-18
   81.59700       -3.4558245E-18
   81.75850       -3.4444872E-18
   81.92000       -3.4328436E-18
   82.08150       -3.4285096E-18
   82.24300       -3.4343929E-18
   82.40450       -3.4469249E-18
   82.56600       -3.4583160E-18
   82.72750       -3.4614460E-18
   82.88900       -3.4543139E-18
   83.05050       -3.4412645E-18
   83.21200       -3.4302212E-18
   83.37350       -3.4277012E-18
   83.53500       -3.4347658E-18
   83.69650       -3.4464201E-18
   83.85800       -3.4547875E-18
   84.01950       -3.4540254E-18
   84.18100       -3.4439468E-18
   84.34250       -3.4301418E-18
   84.50400       -3.4205842E-18
   84.66550       -3.4208236E-18
   84.82700       -3.4306859E-18
   84.98850       -3.4444338E-18
   85.15000       -3.4542444E-18
   85.31150       -3.4548609E-18
   85.47300       -3.4466377E-18
   85.63450       -3.4351967E-18
   85.79600       -3.4279396E-18
   85.95750       -3.4295216E-18
   86.11900       -3.4389962E-18
   86.28050       -3.4503713E-18
   86.44200       -3.4562650E-18
   86.60350       -3.4524775E-18
   86.76500       -3.4406906E-18
   86.92650       -3.4275986E-18
   87.08800       -3.4209694E-18
   87.24950       -3.4250102E-18
   87.41100       -3.4378637E-18
   87.57250       -3.4527433E-18
   87.73400       -3.4620079E-18
   87.89550       -3.4616843E-18
   88.05700       -3.4536904E-18
   88.21850       -3.4444444E-18
   88.38000       -3.4407715E-18
   88.54150       -3.4456552E-18
   88.70300       -3.4564309E-18
   88.86450       -3.4664588E-18
   89.02600       -3.4691957E-18
   89.18750       -3.4621669E-18
   89.34900       -3.4484953E-18
   89.51050       -3.4351338E-18
   89.67200       -3.4288853E-18
   89.83350       -3.4325497E-18
   89.99500       -3.4434270E-18
   90.15650       -3.4550213E-18
   90.31800       -3.4609216E-18
   90.47950       -3.4585710E-18
   90.64100       -3.4506972E-18
   90.80250       -3.4435769E-18
   90.96400       -3.4431558E-18
   91.12550       -3.4513362E-18
   91.28700       -3.4646735E-18
   91.44850       -3.4763171E-18
   91.61000       -3.4800874E-18
   91.77150       -3.4742380E-18
   91.93300       -3.4625876E-18
   92.09450       -3.4522497E-18
   92.25600       -3.4493328E-18
   92.41750       -3.4552401E-18
   92.57900       -3.4658686E-18
   92.74050       -3.4741950E-18
   92.90200       -3.4746507E-18
   93.06350       -3.4665824E-18
   93.22500       -3.4546754E-18
   93.38650       -3.4460855E-18
   93.54800       -3.4460433E-18
   93.70950       -3.4546460E-18
   93.87100       -3.4668022E-18
   94.03250       -3.4753609E-18
   94.19400       -3.4755044E-18
   94.35550       -3.4677124E-18
   94.51700       -3.4575018E-18
   94.67850       -3.4520652E-18
   94.84000       -3.4558264E-18
   95.00150       -3.4675889E-18
   95.16300       -3.4810655E-18
   95.32450       -3.4885697E-18
   95.48600       -3.4857060E-18
   95.64750       -3.4741859E-18
   95.80900       -3.4609458E-18
   95.97050       -3.4539869E-18
   96.13200       -3.4574195E-18
   96.29350       -3.4688133E-18
   96.45500       -3.4806056E-18
   96.61650       -3.4848197E-18
   96.77800       -3.4782192E-18
   96.93950       -3.4646094E-18
   97.10100       -3.4527005E-18
   97.26250       -3.4507144E-18
   97.42400       -3.4610726E-18
   97.58550       -3.4785811E-18
   97.74700       -3.4933851E-18
   97.90850       -3.4969557E-18
   98.07000       -3.4873910E-18
   98.23150       -3.4706737E-18
   98.39300       -3.4570287E-18
   98.55450       -3.4545763E-18
   98.71600       -3.4642103E-18
   98.87750       -3.4789479E-18
   99.03900       -3.4882492E-18
   99.20050       -3.4847035E-18
   99.36200       -3.4689227E-18
   99.52350       -3.4495152E-18
   99.68500       -3.4380126E-18
   99.84650       -3.4418034E-18
   100.0080       -3.4594339E-18
   100.1695       -3.4812839E-18
   100.3310       -3.4953389E-18
   100.4925       -3.4945817E-18
   100.6540       -3.4814163E-18
   100.8155       -3.4662358E-18
   100.9770       -3.4608906E-18
   101.1385       -3.4710736E-18
   101.3000       -3.4924591E-18
   101.4615       -3.5131556E-18
   101.6230       -3.5210593E-18
   101.7845       -3.5115074E-18
   101.9460       -3.4903544E-18
   102.1075       -3.4704392E-18
   102.2690       -3.4635880E-18
   102.4305       -3.4731755E-18
   102.5920       -3.4919918E-18
   102.7535       -3.5068186E-18
   102.9150       -3.5068690E-18
   103.0765       -3.4907394E-18
   103.2380       -3.4674400E-18
   103.3995       -3.4508149E-18
   103.5610       -3.4508519E-18
   103.7225       -3.4673666E-18
   103.8840       -3.4900533E-18
   104.0455       -3.5049090E-18
   104.2070       -3.5030082E-18
   104.3685       -3.4861200E-18
   104.5300       -3.4655755E-18
   104.6915       -3.4550447E-18
   104.8530       -3.4617511E-18
   105.0145       -3.4817298E-18
   105.1760       -3.5022157E-18
   105.3375       -3.5097476E-18
   105.4990       -3.4988561E-18
   105.6605       -3.4757761E-18
   105.8220       -3.4546915E-18
   105.9835       -3.4488198E-18
   106.1450       -3.4619775E-18
   106.3065       -3.4860861E-18
   106.4680       -3.5063111E-18
   106.6295       -3.5106083E-18
   106.7910       -3.4975198E-18
   106.9525       -3.4771319E-18
   107.1140       -3.4645062E-18
   107.2755       -3.4698084E-18
   107.4370       -3.4915306E-18
   107.5985       -3.5172431E-18
   107.7600       -3.5314545E-18
   107.9215       -3.5255534E-18
   108.0830       -3.5034308E-18
   108.2445       -3.4791196E-18
   108.4060       -3.4679123E-18
   108.5675       -3.4766269E-18
   108.7290       -3.4992639E-18
   108.8905       -3.5208740E-18
   109.0520       -3.5271796E-18
   109.2135       -3.5138086E-18
   109.3750       -3.4892029E-18
   109.5365       -3.4693007E-18
   109.6980       -3.4673281E-18
   109.8595       -3.4852031E-18
   110.0210       -3.5121038E-18
   110.1825       -3.5312216E-18
   110.3440       -3.5304656E-18
   110.5055       -3.5102716E-18
   110.6670       -3.4834288E-18
   110.8285       -3.4669454E-18
   110.9900       -3.4711199E-18
   111.1515       -3.4928545E-18
   111.3130       -3.5175682E-18
   111.4745       -3.5285407E-18
   111.6360       -3.5176985E-18
   111.7975       -3.4908755E-18
   111.9590       -3.4641257E-18
   112.1205       -3.4534420E-18
   112.2820       -3.4645318E-18
   112.4435       -3.4892633E-18
   112.6050       -3.5110537E-18
   112.7665       -3.5156830E-18
   112.9280       -3.5005088E-18
   113.0895       -3.4761554E-18
   113.2510       -3.4596442E-18
   113.4125       -3.4634228E-18
   113.5740       -3.4873546E-18
   113.7355       -3.5187655E-18
   113.8970       -3.5404695E-18
   114.0585       -3.5415895E-18
   114.2200       -3.5242423E-18
   114.3815       -3.5018617E-18
   114.5430       -3.4903080E-18
   114.7045       -3.4975525E-18
   114.8660       -3.5185658E-18
   115.0275       -3.5386894E-18
   115.1890       -3.5432774E-18
   115.3505       -3.5273628E-18
   115.5120       -3.4990745E-18
   115.6735       -3.4745527E-18
   115.8350       -3.4676420E-18
   115.9965       -3.4810494E-18
   116.1580       -3.5047353E-18
   116.3195       -3.5225826E-18
   116.4810       -3.5229564E-18
   116.6425       -3.5062226E-18
   116.8040       -3.4843118E-18
   116.9655       -3.4726663E-18
   117.1270       -3.4799352E-18
   117.2885       -3.5022145E-18
   117.4500       -3.5256183E-18
   117.6115       -3.5354378E-18
   117.7730       -3.5258243E-18
   117.9345       -3.5036157E-18
   118.0960       -3.4838329E-18
   118.2575       -3.4798653E-18
   118.4190       -3.4947959E-18
   118.5805       -3.5195075E-18
   118.7420       -3.5387122E-18