  -27.90000        4.6115940E-18
  -27.73850        4.6113450E-18
  -27.57700        4.6109181E-18
  -27.41550        4.6104218E-18
  -27.25400        4.6099512E-18
  -27.09250        4.6095508E-18
  -26.93100        4.6092080E-18
  -26.76950        4.6088705E-18
  -26.60800        4.6084862E-18
  -26.44650        4.6080354E-18
  -26.28500        4.6075441E-18
  -26.12350        4.6070656E-18
  -25.96200        4.6066524E-18
  -25.80050        4.6063256E-18
  -25.63900        4.6060651E-18
  -25.47750        4.6058240E-18
  -25.31600        4.6055555E-18
  -25.15450        4.6052408E-18
  -24.99300        4.6048954E-18
  -24.83150        4.6045559E-18
  -24.67000        4.6042581E-18
  -24.50850        4.6040162E-18
  -24.34700        4.6038168E-18
  -24.18550        4.6036328E-18
  -24.02400        4.6034404E-18
  -23.86250        4.6032386E-18
  -23.70100        4.6030434E-18
  -23.53950        4.6028792E-18
  -23.37800        4.6027555E-18
  -23.21650        4.6026575E-18
  -23.05500        4.6025504E-18
  -22.89350        4.6024044E-18
  -22.73200        4.6022133E-18
  -22.57050        4.6020028E-18
  -22.40900        4.6018183E-18
  -22.24750        4.6016967E-18
  -22.08600        4.6016430E-18
  -21.92450        4.6016219E-18
  -21.76300        4.6015756E-18
  -21.60150        4.6014527E-18
  -21.44000        4.6012422E-18
  -21.27850        4.6009829E-18
  -21.11700        4.6007451E-18
  -20.95550        4.6005916E-18
  -20.79400        4.6005420E-18
  -20.63250        4.6005594E-18
  -20.47100        4.6005676E-18
  -20.30950        4.6004919E-18
  -20.14800        4.6003017E-18
  -19.98650        4.6000217E-18
  -19.82500        4.5997210E-18
  -19.66350        4.5994712E-18
  -19.50200        4.5993078E-18
  -19.34050        4.5992144E-18
  -19.17900        4.5991374E-18
  -19.01750        4.5990220E-18
  -18.85600        4.5988541E-18
  -18.69450        4.5986701E-18
  -18.53300        4.5985373E-18
  -18.37150        4.5985100E-18
  -18.21000        4.5985882E-18
  -18.04850        4.5987057E-18
  -17.88700        4.5987532E-18
  -17.72550        4.5986320E-18
  -17.56400        4.5982983E-18
  -17.40250        4.5977900E-18
  -17.24100        4.5972080E-18
  -17.07950        4.5966675E-18
  -16.91800        4.5962481E-18
  -16.75650        4.5959673E-18
  -16.59500        4.5957865E-18
  -16.43350        4.5956554E-18
  -16.27200        4.5955500E-18
  -16.11050        4.5954983E-18
  -15.94900        4.5955657E-18
  -15.78750        4.5958188E-18
  -15.62600        4.5962882E-18
  -15.46450        4.5969479E-18
  -15.30300        4.5977246E-18
  -15.14150        4.5985336E-18
  -14.98000        4.5993116E-18
  -14.81850        4.6000366E-18
  -14.65700        4.6007236E-18
  -14.49550        4.6013981E-18
  -14.33400        4.6020723E-18
  -14.17250        4.6027311E-18
  -14.01100        4.6033375E-18
  -13.84950        4.6038424E-18
  -13.68800        4.6041961E-18
  -13.52650        4.6043388E-18
  -13.36500        4.6041973E-18
  -13.20350        4.6036832E-18
  -13.04200        4.6027125E-18
  -12.88050        4.6012422E-18
  -12.71900        4.5993049E-18
  -12.55750        4.5970232E-18
  -12.39600        4.5945822E-18
  -12.23450        4.5921734E-18
  -12.07300        4.5899272E-18
  -11.91150        4.5878762E-18
  -11.75000        4.5859687E-18
  -11.58850        4.5841291E-18
  -11.42700        4.5823353E-18
  -11.26550        4.5806698E-18
  -11.10400        4.5793050E-18
  -10.94250        4.5784377E-18
  -10.78100        4.5781936E-18
  -10.61950        4.5785593E-18
  -10.45800        4.5793773E-18
  -10.29650        4.5804113E-18
  -10.13500        4.5814503E-18
  -9.973500        4.5824011E-18
  -9.812000        4.5833180E-18
  -9.650500        4.5843561E-18
  -9.489000        4.5856771E-18
  -9.327500        4.5873480E-18
  -9.166000        4.5892977E-18
  -9.004500        4.5913392E-18
  -8.843000        4.5932508E-18
  -8.681500        4.5948679E-18
  -8.520000        4.5961414E-18
  -8.358500        4.5971415E-18
  -8.197000        4.5980046E-18
  -8.035500        4.5988607E-18
  -7.874000        4.5997802E-18
  -7.712500        4.6007513E-18
  -7.551000        4.6017058E-18
  -7.389500        4.6025587E-18
  -7.228000        4.6032452E-18
  -7.066500        4.6037403E-18
  -6.905000        4.6040534E-18
  -6.743500        4.6042163E-18
  -6.582000        4.6042713E-18
  -6.420500        4.6042680E-18
  -6.259000        4.6042531E-18
  -6.097500        4.6042614E-18
  -5.936000        4.6042920E-18
  -5.774500        4.6042970E-18
  -5.613000        4.6041779E-18
  -5.451500        4.6038131E-18
  -5.290000        4.6031013E-18
  -5.128500        4.6020102E-18
  -4.967000        4.6006003E-18
  -4.805500        4.5990076E-18
  -4.644000        4.5973846E-18
  -4.482500        4.5958370E-18
  -4.321000        4.5943721E-18
  -4.159500        4.5929059E-18
  -3.998000        4.5913144E-18
  -3.836500        4.5895091E-18
  -3.675000        4.5875044E-18
  -3.513500        4.5854331E-18
  -3.352000        4.5835091E-18
  -3.190500        4.5819428E-18
  -3.029000        4.5808596E-18
  -2.867500        4.5802496E-18
  -2.706000        4.5799779E-18
  -2.544500        4.5798501E-18
  -2.383000        4.5796941E-18
  -2.221500        4.5794286E-18
  -2.060000        4.5790891E-18
  -1.898500        4.5788020E-18
  -1.737000        4.5787251E-18
  -1.575500        4.5789869E-18
  -1.414000        4.5796408E-18
  -1.252500        4.5806491E-18
  -1.091000        4.5818998E-18
 -0.9295000        4.5832423E-18
 -0.7680000        4.5845282E-18
 -0.6065000        4.5856432E-18
 -0.4450000        4.5865296E-18
 -0.2835000        4.5871913E-18
 -0.1220000        4.5876926E-18
  3.9500002E-02    4.5881252E-18
  0.2010000        4.5885727E-18
  0.3625000        4.5890644E-18
  0.5240000        4.5895517E-18
  0.6855000        4.5899111E-18
  0.8470000        4.5899884E-18
   1.008500        4.5896691E-18
   1.170000        4.5889416E-18
   1.331500        4.5879333E-18
   1.493000        4.5868774E-18
   1.654500        4.5860353E-18
   1.816000        4.5855828E-18
   1.977500        4.5855324E-18
   2.139000        4.5857131E-18
   2.300500        4.5858389E-18
   2.462000        4.5856341E-18
   2.623500        4.5849579E-18
   2.785000        4.5838817E-18
   2.946500        4.5826666E-18
   3.108000        4.5816554E-18
   3.269500        4.5811223E-18
   3.431000        4.5811504E-18
   3.592500        4.5815863E-18
   3.754000        4.5821029E-18
   3.915500        4.5823395E-18
   4.077000        4.5820603E-18
   4.238500        4.5812550E-18
   4.400000        4.5801491E-18
   4.561500        4.5791106E-18
   4.723000        4.5785059E-18
   4.884500        4.5785593E-18
   5.046000        4.5792772E-18
   5.207500        4.5804614E-18
   5.369000        4.5818018E-18
   5.530500        4.5830103E-18
   5.692000        4.5839330E-18
   5.853500        4.5846076E-18
   6.015000        4.5852392E-18
   6.176500        4.5861168E-18
   6.338000        4.5874961E-18
   6.499500        4.5894929E-18
   6.661000        4.5920191E-18
   6.822500        4.5947906E-18
   6.984000        4.5974004E-18
   7.145500        4.5994423E-18
   7.307000        4.6006388E-18
   7.468500        4.6009287E-18
   7.630000        4.6004758E-18
   7.791500        4.5995887E-18
   7.953000        4.5985770E-18
   8.114500        4.5976010E-18
   8.276000        4.5965827E-18
   8.437500        4.5952232E-18
   8.599000        4.5931367E-18
   8.760500        4.5900500E-18
   8.922000        4.5859753E-18
   9.083500        4.5812803E-18
   9.245000        4.5766046E-18
   9.406500        4.5726478E-18
   9.568000        4.5699210E-18
   9.729500        4.5685653E-18
   9.891000        4.5683179E-18
   10.05250        4.5686500E-18
   10.21400        4.5690061E-18
   10.37550        4.5690492E-18
   10.53700        4.5687923E-18
   10.69850        4.5685731E-18
   10.86000        4.5688746E-18
   11.02150        4.5700898E-18
   11.18300        4.5723355E-18
   11.34450        4.5753874E-18
   11.50600        4.5787632E-18
   11.66750        4.5819102E-18
   11.82900        4.5844058E-18
   11.99050        4.5860940E-18
   12.15200        4.5871111E-18
   12.31350        4.5877943E-18
   12.47500        4.5885231E-18
   12.63650        4.5895603E-18
   12.79800        4.5909450E-18
   12.95950        4.5924799E-18
   13.12100        4.5938001E-18
   13.28250        4.5945048E-18
   13.44400        4.5943121E-18
   13.60550        4.5931685E-18
   13.76700        4.5912978E-18
   13.92850        4.5891451E-18
   14.09000        4.5872331E-18
   14.25150        4.5859849E-18
   14.41300        4.5855584E-18
   14.57450        4.5857863E-18
   14.73600        4.5862338E-18
   14.89750        4.5863707E-18
   15.05900        4.5857942E-18
   15.22050        4.5844082E-18
   15.38200        4.5824747E-18
   15.54350        4.5805073E-18
   15.70500        4.5790485E-18
   15.86650        4.5784248E-18
   16.02800        4.5785907E-18
   16.18950        4.5791383E-18
   16.35100        4.5794638E-18
   16.51250        4.5790229E-18
   16.67400        4.5775596E-18
   16.83550        4.5752104E-18
   16.99700        4.5724414E-18
   17.15850        4.5698482E-18
   17.32000        4.5679126E-18
   17.48150        4.5668216E-18
   17.64300        4.5664204E-18
   17.80450        4.5663116E-18
   17.96600        4.5660444E-18
   18.12750        4.5653091E-18
   18.28900        4.5640654E-18
   18.45050        4.5625620E-18
   18.61200        4.5612460E-18
   18.77350        4.5606119E-18
   18.93500        4.5610400E-18
   19.09650        4.5626782E-18
   19.25800        4.5654063E-18
   19.41950        4.5688825E-18
   19.58100        4.5726507E-18
   19.74250        4.5762841E-18
   19.90400        4.5795151E-18
   20.06550        4.5823105E-18
   20.22700        4.5848599E-18
   20.38850        4.5874763E-18
   20.55000        4.5904285E-18
   20.71150        4.5937773E-18
   20.87300        4.5972775E-18
   21.03450        4.6004055E-18
   21.19600        4.6025111E-18
   21.35750        4.6030479E-18
   21.51900        4.6017890E-18
   21.68050        4.5989402E-18
   21.84200        4.5950892E-18
   22.00350        4.5909996E-18
   22.16500        4.5873385E-18
   22.32650        4.5844417E-18
   22.48800        4.5822307E-18
   22.64950        4.5803121E-18
   22.81100        4.5782118E-18
   22.97250        4.5756418E-18
   23.13400        4.5726772E-18
   23.29550        4.5697626E-18
   23.45700        4.5675524E-18
   23.61850        4.5666429E-18
   23.78000        4.5673274E-18
   23.94150        4.5694694E-18
   24.10300        4.5725477E-18
   24.26450        4.5758502E-18
   24.42600        4.5787284E-18
   24.58750        4.5808121E-18
   24.74900        4.5821037E-18
   24.91050        4.5829284E-18
   25.07200        4.5837713E-18
   25.23350        4.5850580E-18
   25.39500        4.5869750E-18
   25.55650        4.5893775E-18
   25.71800        4.5918194E-18
   25.87950        4.5936954E-18
   26.04100        4.5944407E-18
   26.20250        4.5937285E-18
   26.36400        4.5915923E-18
   26.52550        4.5884350E-18
   26.68700        4.5849029E-18
   26.84850        4.5816645E-18
   27.01000        4.5791755E-18
   27.17150        4.5775162E-18
   27.33300        4.5763834E-18
   27.49450        4.5752398E-18
   27.65600        4.5735792E-18
   27.81750        4.5711862E-18
   27.97900        4.5682766E-18
   28.14050        4.5654505E-18
   28.30200        4.5634649E-18
   28.46350        4.5629135E-18
   28.62500        4.5639665E-18
   28.78650        4.5662773E-18
   28.94800        4.5691104E-18
   29.10950        4.5716403E-18
   29.27100        4.5732806E-18
   29.43250        4.5739064E-18
   29.59400        4.5738724E-18
   29.75550        4.5738286E-18
   29.91700        4.5744192E-18
   30.07850        4.5759979E-18
   30.24000        4.5784765E-18
   30.40150        4.5813651E-18
   30.56300        4.5839756E-18
   30.72450        4.5856908E-18
   30.88600        4.5861904E-18
   31.04750        4.5855498E-18
   31.20900        4.5841903E-18
   31.37050        4.5827051E-18
   31.53200        4.5816413E-18
   31.69350        4.5813100E-18
   31.85500        4.5816848E-18
   32.01650        4.5824201E-18
   32.17800        4.5829892E-18
   32.33950        4.5828821E-18
   32.50100        4.5818117E-18
   32.66250        4.5798472E-18
   32.82400        4.5774206E-18
   32.98550        4.5752017E-18
   33.14700        4.5738650E-18
   33.30850        4.5738369E-18
   33.47000        4.5751223E-18
   33.63150        4.5772883E-18
   33.79300        4.5796251E-18
   33.95450        4.5814267E-18
   34.11600        4.5822733E-18
   34.27750        4.5821939E-18
   34.43900        4.5816368E-18
   34.60050        4.5812501E-18
   34.76200        4.5815764E-18
   34.92350        4.5827907E-18
   35.08500        4.5846022E-18
   35.24650        4.5863740E-18
   35.40800        4.5873944E-18
   35.56950        4.5871921E-18
   35.73100        4.5857433E-18
   35.89250        4.5834876E-18
   36.05400        4.5811434E-18
   36.21550        4.5794170E-18
   36.37700        4.5787239E-18
   36.53850        4.5790382E-18
   36.70000        4.5799328E-18
   36.86150        4.5807687E-18
   37.02300        4.5809622E-18
   37.18450        4.5802058E-18
   37.34600        4.5785675E-18
   37.50750        4.5764425E-18
   37.66900        4.5743824E-18
   37.83050        4.5728860E-18
   37.99200        4.5722251E-18
   38.15350        4.5723657E-18
   38.31500        4.5730043E-18
   38.47650        4.5736996E-18
   38.63800        4.5740437E-18
   38.79950        4.5738162E-18
   38.96100        4.5730651E-18
   39.12250        4.5720849E-18
   39.28400        4.5713036E-18
   39.44550        4.5711155E-18
   39.60700        4.5717230E-18
   39.76850        4.5730465E-18
   39.93000        4.5747369E-18
   40.09150        4.5762990E-18
   40.25300        4.5772730E-18
   40.41450        4.5774144E-18
   40.57600        4.5767874E-18
   40.73750        4.5757402E-18
   40.89900        4.5747642E-18
   41.06050        4.5742993E-18
   41.22200        4.5745586E-18
   41.38350        4.5754540E-18
   41.54500        4.5766468E-18
   41.70650        4.5777027E-18
   41.86800        4.5782826E-18
   42.02950        4.5782842E-18
   42.19100        4.5778797E-18
   42.35250        4.5774281E-18
   42.51400        4.5773160E-18
   42.67550        4.5777929E-18
   42.83700        4.5788711E-18
   42.99850        4.5803369E-18
   43.16000        4.5818452E-18
   43.32150        4.5830633E-18
   43.48300        4.5837924E-18
   43.64450        4.5840286E-18
   43.80600        4.5839368E-18
   43.96750        4.5837697E-18
   44.12900        4.5837602E-18
   44.29050        4.5840364E-18
   44.45200        4.5845849E-18
   44.61350        4.5852598E-18
   44.77500        4.5858302E-18
   44.93650        4.5860457E-18
   45.09800        4.5857024E-18
   45.25950        4.5847023E-18
   45.42100        4.5830852E-18
   45.58250        4.5810263E-18
   45.74400        4.5787967E-18
   45.90550        4.5766869E-18
   46.06700        4.5749184E-18
   46.22850        4.5735784E-18
   46.39000        4.5726011E-18
   46.55150        4.5718157E-18
   46.71300        4.5710468E-18
   46.87450        4.5702221E-18
   47.03600        4.5694313E-18
   47.19750        4.5689131E-18
   47.35900        4.5689482E-18
   47.52050        4.5697279E-18
   47.68200        4.5712457E-18
   47.84350        4.5732727E-18
   48.00500        4.5754288E-18
   48.16650        4.5773272E-18
   48.32800        4.5787094E-18
   48.48950        4.5795291E-18
   48.65100        4.5799270E-18
   48.81250        4.5801297E-18
   48.97400        4.5803203E-18
   49.13550        4.5805470E-18
   49.29700        4.5807149E-18
   49.45850        4.5806557E-18
   49.62000        4.5802206E-18
   49.78150        4.5793600E-18
   49.94300        4.5781366E-18
   50.10450        4.5766894E-18
   50.26600        4.5751629E-18
   50.42750        4.5736561E-18
   50.58900        4.5722098E-18
   50.75050        4.5708417E-18
   50.91200        4.5695918E-18
   51.07350        4.5685508E-18
   51.23500        4.5678452E-18
   51.39650        4.5675954E-18
   51.55800        4.5678651E-18
   51.71950        4.5686438E-18
   51.88100        4.5698615E-18
   52.04250        4.5714294E-18
   52.20400        4.5732835E-18
   52.36550        4.5753982E-18
   52.52700        4.5777759E-18
   52.68850        4.5804105E-18
   52.85000        4.5832514E-18
   53.01150        4.5861871E-18
   53.17300        4.5890574E-18
   53.33450        4.5916804E-18
   53.49600        4.5938786E-18
   53.65750        4.5955012E-18
   53.81900        4.5964309E-18
   53.98050        4.5966042E-18
   54.14200        4.5960264E-18
   54.30350        4.5947877E-18
   54.46500        4.5930535E-18
   54.62650        4.5910253E-18
   54.78800        4.5888705E-18
   54.94950        4.5866619E-18
   55.11100        4.5843537E-18
   55.27250        4.5818262E-18
   55.43400        4.5789853E-18
   55.59550        4.5758779E-18
   55.75700        4.5727553E-18
   55.91850        4.5700376E-18
   56.08000        4.5681748E-18
   56.24150        4.5674597E-18
   56.40300        4.5678820E-18
   56.56450        4.5691083E-18
   56.72600        4.5705981E-18
   56.88750        4.5718301E-18
   57.04900        4.5725229E-18
   57.21050        4.5727566E-18
   57.37200        4.5729286E-18
   57.53350        4.5735631E-18
   57.69500        4.5750545E-18
   57.85650        4.5774591E-18
   58.01800        4.5804390E-18
   58.17950        4.5833743E-18
   58.34100        4.5855981E-18
   58.50250        4.5866483E-18
   58.66400        4.5864332E-18
   58.82550        4.5852441E-18
   58.98700        4.5836216E-18
   59.14850        4.5821285E-18
   59.31000        4.5811289E-18
   59.47150        4.5806566E-18
   59.63300        4.5804225E-18
   59.79450        4.5799568E-18
   59.95600        4.5788227E-18
   60.11750        4.5768284E-18
   60.27900        4.5741462E-18
   60.44050        4.5713028E-18
   60.60200        4.5690256E-18
   60.76350        4.5680102E-18
   60.92500        4.5686682E-18
   61.08650        4.5709699E-18
   61.24800        4.5744325E-18
   61.40950        4.5782826E-18
   61.57100        4.5817269E-18
   61.73250        4.5842358E-18
   61.89400        4.5857288E-18
   62.05550        4.5865808E-18
   62.21700        4.5874436E-18
   62.37850        4.5889395E-18
   62.54000        4.5913582E-18
   62.70150        4.5944783E-18
   62.86300        4.5976010E-18
   63.02450        4.5998013E-18
   63.18600        4.6002847E-18
   63.34750        4.5987193E-18
   63.50900        4.5953940E-18
   63.67050        4.5911341E-18
   63.83200        4.5869969E-18
   63.99350        4.5838702E-18
   64.15500        4.5821306E-18
   64.31650        4.5815148E-18
   64.47800        4.5812497E-18
   64.63950        4.5804076E-18
   64.80100        4.5783260E-18
   64.96250        4.5749226E-18
   65.12400        4.5707767E-18
   65.28550        4.5669299E-18
   65.44700        4.5644968E-18
   65.60850        4.5642284E-18
   65.77000        4.5662140E-18
   65.93150        4.5698358E-18
   66.09300        4.5739969E-18
   66.25450        4.5775352E-18
   66.41600        4.5796540E-18
   66.57750        4.5802095E-18
   66.73900        4.5797339E-18
   66.90050        4.5792007E-18
   67.06200        4.5796135E-18
   67.22350        4.5815822E-18
   67.38500        4.5850481E-18
   67.54650        4.5892650E-18
   67.70800        4.5930601E-18
   67.86950        4.5952691E-18
   68.03100        4.5951947E-18
   68.19250        4.5929013E-18
   68.35400        4.5892224E-18
   68.51550        4.5854708E-18
   68.67700        4.5829437E-18
   68.83850        4.5824176E-18
   69.00000        4.5838334E-18
   69.16150        4.5863087E-18
   69.32300        4.5884916E-18
   69.48450        4.5891219E-18
   69.64600        4.5875730E-18
   69.80750        4.5841444E-18
   69.96900        4.5799684E-18
   70.13050        4.5765637E-18
   70.29200        4.5752067E-18
   70.45350        4.5763900E-18
   70.61500        4.5795994E-18
   70.77650        4.5835066E-18
   70.93800        4.5865138E-18
   71.09950        4.5874163E-18
   71.26100        4.5859108E-18
   71.42250        4.5827233E-18
   71.58400        4.5793116E-18
   71.74550        4.5772626E-18
   71.90700        4.5776365E-18
   72.06850        4.5805242E-18
   72.23000        4.5849960E-18
   72.39150        4.5894660E-18
   72.55300        4.5923124E-18
   72.71450        4.5925146E-18
   72.87600        4.5900463E-18
   73.03750        4.5858810E-18
   73.19900        4.5816074E-18
   73.36050        4.5788215E-18
   73.52200        4.5785179E-18
   73.68350        4.5807252E-18
   73.84500        4.5845187E-18
   74.00650        4.5884027E-18
   74.16800        4.5909198E-18
   74.32950        4.5912408E-18
   74.49100        4.5895095E-18
   74.65250        4.5867943E-18
   74.81400        4.5846638E-18
   74.97550        4.5845497E-18
   75.13700        4.5871421E-18
   75.29850        4.5920708E-18
   75.46000        4.5980063E-18
   75.62150        4.6031509E-18
   75.78300        4.6059327E-18
   75.94450        4.6056221E-18
   76.10600        4.6026157E-18
   76.26750        4.5982685E-18
   76.42900        4.5943352E-18
   76.59050        4.5922586E-18
   76.75200        4.5925800E-18
   76.91350        4.5947302E-18
   77.07500        4.5972767E-18
   77.23650        4.5985233E-18
   77.39800        4.5972221E-18
   77.55950        4.5930965E-18
   77.72100        4.5869725E-18
   77.88250        4.5804647E-18
   78.04400        4.5753477E-18
   78.20550        4.5728724E-18
   78.36700        4.5732947E-18
   78.52850        4.5757944E-18
   78.69000        4.5788153E-18
   78.85150        4.5806839E-18
   79.01300        4.5802616E-18
   79.17450        4.5773884E-18
   79.33600        4.5729390E-18
   79.49750        4.5684817E-18
   79.65900        4.5656693E-18
   79.82050        4.5655977E-18
   79.98200        4.5683758E-18
   80.14350        4.5730680E-18
   80.30500        4.5780476E-18
   80.46650        4.5816136E-18
   80.62800        4.5826505E-18
   80.78950        4.5810689E-18
   80.95100        4.5778504E-18
   81.11250        4.5746719E-18
   81.27400        4.5732467E-18
   81.43550        4.5746454E-18
   81.59700        4.5788566E-18
   81.75850        4.5847776E-18
   81.92000        4.5906427E-18
   82.08150        4.5947191E-18
   82.24300        4.5960045E-18
   82.40450        4.5946326E-18
   82.56600        4.5918227E-18
   82.72750        4.5893837E-18
   82.88900        4.5889743E-18
   83.05050        4.5914083E-18
   83.21200        4.5962928E-18
   83.37350        4.6021546E-18
   83.53500        4.6069969E-18
   83.69650        4.6090843E-18
   83.85800        4.6076301E-18
   84.01950        4.6031187E-18
   84.18100        4.5971307E-18
   84.34250        4.5917342E-18
   84.50400        4.5886827E-18
   84.66550        4.5887365E-18
   84.82700        4.5913797E-18
   84.98850        4.5950433E-18
   85.15000        4.5977474E-18
   85.31150        4.5979095E-18
   85.47300        4.5950011E-18
   85.63450        4.5897800E-18
   85.79600        4.5840095E-18
   85.95750        4.5797678E-18
   86.11900        4.5786126E-18
   86.28050        4.5809494E-18
   86.44200        4.5858430E-18
   86.60350        4.5913694E-18
   86.76500        4.5953614E-18
   86.92650        4.5962663E-18
   87.08800        4.5937661E-18
   87.24950        4.5889110E-18
   87.41100        4.5837093E-18
   87.57250        4.5803211E-18
   87.73400        4.5801826E-18
   87.89550        4.5834086E-18
   88.05700        4.5887224E-18
   88.21850        4.5939514E-18
   88.38000        4.5968941E-18
   88.54150        4.5962092E-18
   88.70300        4.5919811E-18
   88.86450        4.5857053E-18
   89.02600        4.5797061E-18
   89.18750        4.5761989E-18
   89.34900        4.5763834E-18
   89.51050        4.5799394E-18
   89.67200        4.5851391E-18
   89.83350        4.5895479E-18
   89.99500        4.5910211E-18
   90.15650        4.5886049E-18
   90.31800        4.5829553E-18
   90.47950        4.5761034E-18
   90.64100        4.5706456E-18
   90.80250        4.5686960E-18
   90.96400        4.5710232E-18
   91.12550        4.5767399E-18
   91.28700        4.5836729E-18
   91.44850        4.5892646E-18
   91.61000        4.5916262E-18
   91.77150        4.5903127E-18
   91.93300        4.5864903E-18
   92.09450        4.5824363E-18
   92.25600        4.5805759E-18
   92.41750        4.5824573E-18
   92.57900        4.5880900E-18
   92.74050        4.5959181E-18
   92.90200        4.6034404E-18
   93.06350        4.6082145E-18
   93.22500        4.6088345E-18
   93.38650        4.6054827E-18
   93.54800        4.5998306E-18
   93.70950        4.5943423E-18
   93.87100        4.5912647E-18
   94.03250        4.5917160E-18
   94.19400        4.5952418E-18
   94.35550        4.6000196E-18
   94.51700        4.6036265E-18
   94.67850        4.6040513E-18
   94.84000        4.6005337E-18
   95.00150        4.5938964E-18
   95.16300        4.5862314E-18
   95.32450        4.5800660E-18
   95.48600        4.5773565E-18
   95.64750        4.5787148E-18
   95.80900        4.5831836E-18
   95.97050        4.5886517E-18
   96.13200        4.5927380E-18
   96.29350        4.5937686E-18
   96.45500        4.5914567E-18
   96.61650        4.5869878E-18
   96.77800        4.5825024E-18
   96.93950        4.5801838E-18
   97.10100        4.5813365E-18
   97.26250        4.5858355E-18
   97.42400        4.5921767E-18
   97.58550        4.5980898E-18
   97.74700        4.6014639E-18
   97.90850        4.6011926E-18
   98.07000        4.5976010E-18
   98.23150        4.5922842E-18
   98.39300        4.5874399E-18
   98.55450        4.5849798E-18
   98.71600        4.5857822E-18
   98.87750        4.5893767E-18
   99.03900        4.5941818E-18
   99.20050        4.5981775E-18
   99.36200        4.5997347E-18
   99.52350        4.5982660E-18
   99.68500        4.5944432E-18
   99.84650        4.5899028E-18
   100.0080        4.5865693E-18
   100.1695        4.5858736E-18
   100.3310        4.5881794E-18
   100.4925        4.5926362E-18
   100.6540        4.5975215E-18
   100.8155        4.6009229E-18
   100.9770        4.6015007E-18
   101.1385        4.5990105E-18
   101.3000        4.5943903E-18
   101.4615        4.5893722E-18
   101.6230        4.5857760E-18
   101.7845        4.5847821E-18
   101.9460        4.5864626E-18
   102.1075        4.5897729E-18
   102.2690        4.5929952E-18
   102.4305        4.5944564E-18
   102.5920        4.5932289E-18
   102.7535        4.5895202E-18
   102.9150        4.5845952E-18
   103.0765        4.5802546E-18
   103.2380        4.5781031E-18
   103.3995        4.5788897E-18
   103.5610        4.5822092E-18
   103.7225        4.5866743E-18
   103.8840        4.5904975E-18
   104.0455        4.5922284E-18
   104.2070        4.5913533E-18
   104.3685        4.5884991E-18
   104.5300        4.5851568E-18
   104.6915        4.5830446E-18
   104.8530        4.5833797E-18
   105.0145        4.5863666E-18
   105.1760        4.5911125E-18
   105.3375        4.5960070E-18
   105.4990        4.5993906E-18
   105.6605        4.6002438E-18
   105.8220        4.5985965E-18
   105.9835        4.5954867E-18
   106.1450        4.5924960E-18
   106.3065        4.5910650E-18
   106.4680        4.5918835E-18
   106.6295        4.5946140E-18
   106.7910        4.5980563E-18
   106.9525        4.6006756E-18
   107.1140        4.6012633E-18
   107.2755        4.5994468E-18
   107.4370        4.5958370E-18
   107.5985        4.5917549E-18
   107.7600        4.5886711E-18
   107.9215        4.5875859E-18
   108.0830        4.5886269E-18
   108.2445        4.5910199E-18
   108.4060        4.5934452E-18
   108.5675        4.5946173E-18
   108.7290        4.5938377E-18
   108.8905        4.5912954E-18
   109.0520        4.5879883E-18
   109.2135        4.5852954E-18
   109.3750        4.5843992E-18
   109.5365        4.5857834E-18
   109.6980        4.5890297E-18
   109.8595        4.5930035E-18
   110.0210        4.5963287E-18
   110.1825        4.5979682E-18
   110.3440        4.5976456E-18
   110.5055        4.5959334E-18
   110.6670        4.5939688E-18
   110.8285        4.5929187E-18
   110.9900        4.5934332E-18
   111.1515        4.5953295E-18
   111.3130        4.5976502E-18
   111.4745        4.5990837E-18
   111.6360        4.5985584E-18
   111.7975        4.5957448E-18
   111.9590        4.5912383E-18
   112.1205        4.5863302E-18
   112.2820        4.5824656E-18
   112.4435        4.5806301E-18
   112.6050        4.5809428E-18
   112.7665        4.5826410E-18
   112.9280        4.5844633E-18
   113.0895        4.5852582E-18
   113.2510        4.5845323E-18
   113.4125        4.5826823E-18
   113.5740        4.5808055E-18
   113.7355        4.5801739E-18
   113.8970        4.5816215E-18
   114.0585        4.5851246E-18
   114.2200        4.5897779E-18
   114.3815        4.5941731E-18
   114.5430        4.5970070E-18
   114.7045        4.5976464E-18
   114.8660        4.5963891E-18
   115.0275        4.5943071E-18
   115.1890        4.5927462E-18
   115.3505        4.5927156E-18
   115.5120        4.5944395E-18
   115.6735        4.5972676E-18
   115.8350        4.5999845E-18
   115.9965        4.6013688E-18
   116.1580        4.6007562E-18
   116.3195        4.5983491E-18
   116.4810        4.5951442E-18
   116.6425        4.5925047E-18
   116.8040        4.5915696E-18
   116.9655        4.5927520E-18
   117.1270        4.5955533E-18
   117.2885        4.5987735E-18
   117.4500        4.6010284E-18
   117.6115        4.6013485E-18
   117.7730        4.5996044E-18
   117.9345        4.5965645E-18
   118.0960        4.5935656E-18
   118.2575        4.5919215E-18
   118.4190        4.5923359E-18
   118.5805        4.5945739E-18
   118.7420        4.5975393E-18