  -27.90000       -3.5978155E-18
  -27.73850       -3.6035404E-18
  -27.57700       -3.6130674E-18
  -27.41550       -3.6234246E-18
  -27.25400       -3.6317266E-18
  -27.09250       -3.6362686E-18
  -26.93100       -3.6371289E-18
  -26.76950       -3.6360544E-18
  -26.60800       -3.6356809E-18
  -26.44650       -3.6384011E-18
  -26.28500       -3.6453498E-18
  -26.12350       -3.6559046E-18
  -25.96200       -3.6679103E-18
  -25.80050       -3.6785288E-18
  -25.63900       -3.6853721E-18
  -25.47750       -3.6874632E-18
  -25.31600       -3.6856310E-18
  -25.15450       -3.6821829E-18
  -24.99300       -3.6799975E-18
  -24.83150       -3.6813834E-18
  -24.67000       -3.6871762E-18
  -24.50850       -3.6964282E-18
  -24.34700       -3.7068011E-18
  -24.18550       -3.7155137E-18
  -24.02400       -3.7204516E-18
  -23.86250       -3.7209938E-18
  -23.70100       -3.7182459E-18
  -23.53950       -3.7145745E-18
  -23.37800       -3.7126567E-18
  -23.21650       -3.7144111E-18
  -23.05500       -3.7202502E-18
  -22.89350       -3.7289397E-18
  -22.73200       -3.7381082E-18
  -22.57050       -3.7452033E-18
  -22.40900       -3.7485017E-18
  -22.24750       -3.7477734E-18
  -22.08600       -3.7443443E-18
  -21.92450       -3.7405471E-18
  -21.76300       -3.7387790E-18
  -21.60150       -3.7405546E-18
  -21.44000       -3.7459193E-18
  -21.27850       -3.7534569E-18
  -21.11700       -3.7608705E-18
  -20.95550       -3.7659043E-18
  -20.79400       -3.7672365E-18
  -20.63250       -3.7649899E-18
  -20.47100       -3.7606774E-18
  -20.30950       -3.7566027E-18
  -20.14800       -3.7549670E-18
  -19.98650       -3.7570217E-18
  -19.82500       -3.7626076E-18
  -19.66350       -3.7702342E-18
  -19.50200       -3.7776698E-18
  -19.34050       -3.7827991E-18
  -19.17900       -3.7844179E-18
  -19.01750       -3.7826622E-18
  -18.85600       -3.7789163E-18
  -18.69450       -3.7752536E-18
  -18.53300       -3.7736240E-18
  -18.37150       -3.7751142E-18
  -18.21000       -3.7795487E-18
  -18.04850       -3.7855850E-18
  -17.88700       -3.7912566E-18
  -17.72550       -3.7947473E-18
  -17.56400       -3.7951022E-18
  -17.40250       -3.7926037E-18
  -17.24100       -3.7886692E-18
  -17.07950       -3.7853179E-18
  -16.91800       -3.7843997E-18
  -16.75650       -3.7868821E-18
  -16.59500       -3.7924684E-18
  -16.43350       -3.7996860E-18
  -16.27200       -3.8064250E-18
  -16.11050       -3.8107206E-18
  -15.94900       -3.8114911E-18
  -15.78750       -3.8089471E-18
  -15.62600       -3.8045217E-18
  -15.46450       -3.8003382E-18
  -15.30300       -3.7984117E-18
  -15.14150       -3.7998895E-18
  -14.98000       -3.8046201E-18
  -14.81850       -3.8112181E-18
  -14.65700       -3.8176106E-18
  -14.49550       -3.8218553E-18
  -14.33400       -3.8229153E-18
  -14.17250       -3.8210810E-18
  -14.01100       -3.8178753E-18
  -13.84950       -3.8154616E-18
  -13.68800       -3.8157780E-18
  -13.52650       -3.8197389E-18
  -13.36500       -3.8268204E-18
  -13.20350       -3.8352138E-18
  -13.04200       -3.8424901E-18
  -12.88050       -3.8465363E-18
  -12.71900       -3.8463849E-18
  -12.55750       -3.8426191E-18
  -12.39600       -3.8371763E-18
  -12.23450       -3.8326119E-18
  -12.07300       -3.8311168E-18
  -11.91150       -3.8336608E-18
  -11.75000       -3.8396161E-18
  -11.58850       -3.8470090E-18
  -11.42700       -3.8533146E-18
  -11.26550       -3.8564732E-18
  -11.10400       -3.8557283E-18
  -10.94250       -3.8519468E-18
  -10.78100       -3.8472853E-18
  -10.61950       -3.8443310E-18
  -10.45800       -3.8450581E-18
  -10.29650       -3.8500146E-18
  -10.13500       -3.8580738E-18
  -9.973500       -3.8668572E-18
  -9.812000       -3.8736670E-18
  -9.650500       -3.8765563E-18
  -9.489000       -3.8751071E-18
  -9.327500       -3.8706039E-18
  -9.166000       -3.8655254E-18
  -9.004500       -3.8625517E-18
  -8.843000       -3.8634831E-18
  -8.681500       -3.8685008E-18
  -8.520000       -3.8760769E-18
  -8.358500       -3.8835671E-18
  -8.197000       -3.8882642E-18
  -8.035500       -3.8884789E-18
  -7.874000       -3.8842280E-18
  -7.712500       -3.8772453E-18
  -7.551000       -3.8703094E-18
  -7.389500       -3.8661574E-18
  -7.228000       -3.8664109E-18
  -7.066500       -3.8709546E-18
  -6.905000       -3.8780059E-18
  -6.743500       -3.8848509E-18
  -6.582000       -3.8889553E-18
  -6.420500       -3.8889925E-18
  -6.259000       -3.8853815E-18
  -6.097500       -3.8801165E-18
  -5.936000       -3.8759616E-18
  -5.774500       -3.8753221E-18
  -5.613000       -3.8792649E-18
  -5.451500       -3.8870656E-18
  -5.290000       -3.8964794E-18
  -5.128500       -3.9046201E-18
  -4.967000       -3.9091013E-18
  -4.805500       -3.9089822E-18
  -4.644000       -3.9051399E-18
  -4.482500       -3.8999254E-18
  -4.321000       -3.8962407E-18
  -4.159500       -3.8963999E-18
  -3.998000       -3.9012356E-18
  -3.836500       -3.9097887E-18
  -3.675000       -3.9197128E-18
  -3.513500       -3.9282166E-18
  -3.352000       -3.9331727E-18
  -3.190500       -3.9339436E-18
  -3.029000       -3.9316068E-18
  -2.867500       -3.9284904E-18
  -2.706000       -3.9272133E-18
  -2.544500       -3.9296133E-18
  -2.383000       -3.9359917E-18
  -2.221500       -3.9449741E-18
  -2.060000       -3.9540466E-18
  -1.898500       -3.9605437E-18
  -1.737000       -3.9627030E-18
  -1.575500       -3.9603646E-18
  -1.414000       -3.9550346E-18
  -1.252500       -3.9493031E-18
  -1.091000       -3.9458347E-18
 -0.9295000       -3.9463356E-18
 -0.7680000       -3.9509049E-18
 -0.6065000       -3.9580125E-18
 -0.4450000       -3.9651184E-18
 -0.2835000       -3.9696766E-18
 -0.1220000       -3.9701270E-18
  3.9500002E-02   -3.9664903E-18
  0.2010000       -3.9603398E-18
  0.3625000       -3.9541661E-18
  0.5240000       -3.9503942E-18
  0.6855000       -3.9504401E-18
  0.8470000       -3.9541727E-18
   1.008500       -3.9599874E-18
   1.170000       -3.9654526E-18
   1.331500       -3.9682770E-18
   1.493000       -3.9672095E-18
   1.654500       -3.9625293E-18
   1.816000       -3.9559379E-18
   1.977500       -3.9499016E-18
   2.139000       -3.9466946E-18
   2.300500       -3.9475226E-18
   2.462000       -3.9520576E-18
   2.623500       -3.9585584E-18
   2.785000       -3.9645410E-18
   2.946500       -3.9677360E-18
   3.108000       -3.9669647E-18
   3.269500       -3.9626042E-18
   3.431000       -3.9564570E-18
   3.592500       -3.9510778E-18
   3.754000       -3.9488027E-18
   3.915500       -3.9508561E-18
   4.077000       -3.9568751E-18
   4.238500       -3.9650398E-18
   4.400000       -3.9727669E-18
   4.561500       -3.9776990E-18
   4.723000       -3.9786205E-18
   4.884500       -3.9759387E-18
   5.046000       -3.9715348E-18
   5.207500       -3.9680425E-18
   5.369000       -3.9678191E-18
   5.530500       -3.9720059E-18
   5.692000       -3.9800544E-18
   5.853500       -3.9899024E-18
   6.015000       -3.9987594E-18
   6.176500       -4.0041828E-18
   6.338000       -4.0050493E-18
   6.499500       -4.0020202E-18
   6.661000       -3.9973160E-18
   6.822500       -3.9938704E-18
   6.984000       -3.9941834E-18
   7.145500       -3.9993153E-18
   7.307000       -4.0084337E-18
   7.468500       -4.0190882E-18
   7.630000       -4.0281363E-18
   7.791500       -4.0329571E-18
   7.953000       -4.0324910E-18
   8.114500       -4.0276810E-18
   8.276000       -4.0211309E-18
   8.437500       -4.0160996E-18
   8.599000       -4.0152124E-18
   8.760500       -4.0194025E-18
   8.922000       -4.0275106E-18
   9.083500       -4.0367134E-18
   9.245000       -4.0436364E-18
   9.406500       -4.0457123E-18
   9.568000       -4.0422439E-18
   9.729500       -4.0347422E-18
   9.891000       -4.0263761E-18
   10.05250       -4.0207331E-18
   10.21400       -4.0203856E-18
   10.37550       -4.0258248E-18
   10.53700       -4.0352108E-18
   10.69850       -4.0450563E-18
   10.86000       -4.0515873E-18
   11.02150       -4.0522495E-18
   11.18300       -4.0467512E-18
   11.34450       -4.0372208E-18
   11.50600       -4.0273972E-18
   11.66750       -4.0211578E-18
   11.82900       -4.0209758E-18
   11.99050       -4.0269249E-18
   12.15200       -4.0366339E-18
   12.31350       -4.0462268E-18
   12.47500       -4.0518814E-18
   12.63650       -4.0513838E-18
   12.79800       -4.0450513E-18
   12.95950       -4.0356459E-18
   13.12100       -4.0272967E-18
   13.28250       -4.0238532E-18
   13.44400       -4.0273215E-18
   13.60550       -4.0370178E-18
   13.76700       -4.0497977E-18
   13.92850       -4.0612711E-18
   14.09000       -4.0675494E-18
   14.25150       -4.0668099E-18
   14.41300       -4.0600552E-18
   14.57450       -4.0507469E-18
   14.73600       -4.0434371E-18
   14.89750       -4.0419395E-18
   15.05900       -4.0477645E-18
   15.22050       -4.0594637E-18
   15.38200       -4.0731560E-18
   15.54350       -4.0840463E-18
   15.70500       -4.0883336E-18
   15.86650       -4.0847502E-18
   16.02800       -4.0750958E-18
   16.18950       -4.0635492E-18
   16.35100       -4.0550089E-18
   16.51250       -4.0531387E-18
   16.67400       -4.0588909E-18
   16.83550       -4.0701199E-18
   16.99700       -4.0824444E-18
   17.15850       -4.0910244E-18
   17.32000       -4.0925315E-18
   17.48150       -4.0865258E-18
   17.64300       -4.0756686E-18
   17.80450       -4.0646816E-18
   17.96600       -4.0584616E-18
   18.12750       -4.0601060E-18
   18.28900       -4.0696397E-18
   18.45050       -4.0839702E-18
   18.61200       -4.0980864E-18
   18.77350       -4.1070386E-18
   18.93500       -4.1079034E-18
   19.09650       -4.1009567E-18
   19.25800       -4.0895723E-18
   19.41950       -4.0788884E-18
   19.58100       -4.0737586E-18
   19.74250       -4.0768097E-18
   19.90400       -4.0873773E-18
   20.06550       -4.1017570E-18
   20.22700       -4.1146693E-18
   20.38850       -4.1213691E-18
   20.55000       -4.1195501E-18
   20.71150       -4.1102840E-18
   20.87300       -4.0976120E-18
   21.03450       -4.0869398E-18
   21.19600       -4.0828754E-18
   21.35750       -4.0873728E-18
   21.51900       -4.0989318E-18
   21.68050       -4.1131792E-18
   21.84200       -4.1246034E-18
   22.00350       -4.1287624E-18
   22.16500       -4.1240711E-18
   22.32650       -4.1124595E-18
   22.48800       -4.0986278E-18
   22.64950       -4.0881929E-18
   22.81100       -4.0854723E-18
   22.97250       -4.0917713E-18
   23.13400       -4.1048689E-18
   23.29550       -4.1198971E-18
   23.45700       -4.1312663E-18
   23.61850       -4.1348736E-18
   23.78000       -4.1297170E-18
   23.94150       -4.1182849E-18
   24.10300       -4.1055641E-18
   24.26450       -4.0970624E-18
   24.42600       -4.0966281E-18
   24.58750       -4.1049235E-18
   24.74900       -4.1191498E-18
   24.91050       -4.1341370E-18
   25.07200       -4.1443705E-18
   25.23350       -4.1461605E-18
   25.39500       -4.1391109E-18
   25.55650       -4.1263007E-18
   25.71800       -4.1131051E-18
   25.87950       -4.1051096E-18
   26.04100       -4.1059231E-18
   26.20250       -4.1157480E-18
   26.36400       -4.1312733E-18
   26.52550       -4.1469434E-18
   26.68700       -4.1571215E-18
   26.84850       -4.1583089E-18
   27.01000       -4.1505512E-18
   27.17150       -4.1374590E-18
   27.33300       -4.1248333E-18
   27.49450       -4.1183974E-18
   27.65600       -4.1215366E-18
   27.81750       -4.1339216E-18
   27.97900       -4.1515765E-18
   28.14050       -4.1683869E-18
   28.30200       -4.1784739E-18
   28.46350       -4.1785037E-18
   28.62500       -4.1690288E-18
   28.78650       -4.1543066E-18
   28.94800       -4.1406457E-18
   29.10950       -4.1339253E-18
   29.27100       -4.1372456E-18
   29.43250       -4.1496566E-18
   29.59400       -4.1664773E-18
   29.75550       -4.1811101E-18
   29.91700       -4.1876527E-18
   30.07850       -4.1832790E-18
   30.24000       -4.1694361E-18
   30.40150       -4.1513627E-18
   30.56300       -4.1360855E-18
   30.72450       -4.1296682E-18
   30.88600       -4.1347930E-18
   31.04750       -4.1496388E-18
   31.20900       -4.1685349E-18
   31.37050       -4.1841521E-18
   31.53200       -4.1903952E-18
   31.69350       -4.1848535E-18
   31.85500       -4.1698166E-18
   32.01650       -4.1514330E-18
   32.17800       -4.1373064E-18
   32.33950       -4.1334728E-18
   32.50100       -4.1419518E-18
   32.66250       -4.1598677E-18
   32.82400       -4.1805224E-18
   32.98550       -4.1960250E-18
   33.14700       -4.2004500E-18
   33.30850       -4.1922581E-18
   33.47000       -4.1749927E-18
   33.63150       -4.1559390E-18
   33.79300       -4.1432517E-18
   33.95450       -4.1426843E-18
   34.11600       -4.1552260E-18
   34.27750       -4.1766243E-18
   34.43900       -4.1990062E-18
   34.60050       -4.2139827E-18
   34.76200       -4.2160134E-18
   34.92350       -4.2046600E-18
   35.08500       -4.1848238E-18
   35.24650       -4.1648333E-18
   35.40800       -4.1531274E-18
   35.56950       -4.1548600E-18
   35.73100       -4.1697852E-18
   35.89250       -4.1922986E-18
   36.05400       -4.2136386E-18
   36.21550       -4.2253875E-18
   36.37700       -4.2228724E-18
   36.53850       -4.2070985E-18
   36.70000       -4.1844122E-18
   36.86150       -4.1640136E-18
   37.02300       -4.1542929E-18
   37.18450       -4.1594504E-18
   37.34600       -4.1777758E-18
   37.50750       -4.2022798E-18
   37.66900       -4.2234593E-18
   37.83050       -4.2331001E-18
   37.99200       -4.2275940E-18
   38.15350       -4.2094307E-18
   38.31500       -4.1862469E-18
   38.47650       -4.1677979E-18
   38.63800       -4.1620424E-18
   38.79950       -4.1719193E-18
   38.96100       -4.1941130E-18
   39.12250       -4.2203251E-18
   39.28400       -4.2405666E-18
   39.44550       -4.2471506E-18
   39.60700       -4.2377943E-18
   39.76850       -4.2165681E-18
   39.93000       -4.1922990E-18
   40.09150       -4.1750510E-18
   40.25300       -4.1720889E-18
   40.41450       -4.1849466E-18
   40.57600       -4.2087872E-18
   40.73750       -4.2343235E-18
   40.89900       -4.2515400E-18
   41.06050       -4.2537225E-18
   41.22200       -4.2401750E-18
   41.38350       -4.2165255E-18
   41.54500       -4.1924839E-18
   41.70650       -4.1779561E-18
   41.86800       -4.1790612E-18
   42.02950       -4.1956561E-18
   42.19100       -4.2213682E-18
   42.35250       -4.2461261E-18
   42.51400       -4.2601770E-18
   42.67550       -4.2579842E-18
   42.83700       -4.2404442E-18
   42.99850       -4.2145394E-18
   43.16000       -4.1905632E-18
   43.32150       -4.1780339E-18
   43.48300       -4.1819245E-18
   43.64450       -4.2007089E-18
   43.80600       -4.2270042E-18
   43.96750       -4.2505362E-18
   44.12900       -4.2622516E-18
   44.29050       -4.2579246E-18
   44.45200       -4.2398325E-18
   44.61350       -4.2158331E-18
   44.77500       -4.1962190E-18
   44.93650       -4.1896024E-18
   45.09800       -4.1994653E-18
   45.25950       -4.2227442E-18
   45.42100       -4.2510106E-18
   45.58250       -4.2737825E-18
   45.74400       -4.2826495E-18
   45.90550       -4.2745873E-18
   46.06700       -4.2531518E-18
   46.22850       -4.2270774E-18
   46.39000       -4.2068441E-18
   46.55150       -4.2005580E-18
   46.71300       -4.2107716E-18
   46.87450       -4.2335004E-18
   47.03600       -4.2598180E-18
   47.19750       -4.2793957E-18
   47.35900       -4.2845999E-18
   47.52050       -4.2735137E-18
   47.68200       -4.2507070E-18
   47.84350       -4.2254379E-18
   48.00500       -4.2079981E-18
   48.16650       -4.2056431E-18
   48.32800       -4.2197093E-18
   48.48950       -4.2450653E-18
   48.65100       -4.2721099E-18
   48.81250       -4.2905478E-18
   48.97400       -4.2934475E-18
   49.13550       -4.2799872E-18
   49.29700       -4.2557959E-18
   49.45850       -4.2307484E-18
   49.62000       -4.2150779E-18
   49.78150       -4.2153256E-18
   49.94300       -4.2317303E-18
   50.10450       -4.2580942E-18
   50.26600       -4.2841913E-18
   50.42750       -4.2997820E-18
   50.58900       -4.2986612E-18
   50.75050       -4.2811452E-18
   50.91200       -4.2540013E-18
   51.07350       -4.2278351E-18
   51.23500       -4.2129504E-18
   51.39650       -4.2152963E-18
   51.55800       -4.2341055E-18
   51.71950       -4.2621672E-18
   51.88100       -4.2886486E-18
   52.04250       -4.3033658E-18
   52.20400       -4.3008284E-18
   52.36550       -4.2824513E-18
   52.52700       -4.2560349E-18
   52.68850       -4.2326985E-18
   52.85000       -4.2224584E-18
   53.01150       -4.2301921E-18
   53.17300       -4.2536146E-18
   53.33450       -4.2840817E-18
   53.49600       -4.3099534E-18
   53.65750       -4.3211952E-18
   53.81900       -4.3133991E-18
   53.98050       -4.2896098E-18
   54.14200       -4.2591976E-18
   54.30350       -4.2341953E-18
   54.46500       -4.2245359E-18
   54.62650       -4.2340849E-18
   54.78800       -4.2590645E-18
   54.94950       -4.2895258E-18
   55.11100       -4.3133085E-18
   55.27250       -4.3209173E-18
   55.43400       -4.3093707E-18
   55.59550       -4.2834535E-18
   55.75700       -4.2538582E-18
   55.91850       -4.2329222E-18
   56.08000       -4.2296669E-18
   56.24150       -4.2461245E-18
   56.40300       -4.2764419E-18
   56.56450       -4.3091560E-18
   56.72600       -4.3317426E-18
   56.88750       -4.3356337E-18
   57.04900       -4.3196823E-18
   57.21050       -4.2906723E-18
   57.37200       -4.2606340E-18
   57.53350       -4.2420386E-18
   57.69500       -4.2427731E-18
   57.85650       -4.2629344E-18
   58.01800       -4.2947375E-18
   58.17950       -4.3255979E-18
   58.34100       -4.3431705E-18
   58.50250       -4.3403226E-18
   58.66400       -4.3180350E-18
   58.82550       -4.2850491E-18
   58.98700       -4.2543863E-18
   59.14850       -4.2381298E-18
   59.31000       -4.2425672E-18
   59.47150       -4.2656596E-18
   59.63300       -4.2978704E-18
   59.79450       -4.3260214E-18
   59.95600       -4.3386363E-18
   60.11750       -4.3306094E-18
   60.27900       -4.3052960E-18
   60.44050       -4.2731836E-18
   60.60200       -4.2476564E-18
   60.76350       -4.2395761E-18
   60.92500       -4.2528639E-18
   61.08650       -4.2828827E-18
   61.24800       -4.3182765E-18
   61.40950       -4.3455280E-18
   61.57100       -4.3543974E-18
   61.73250       -4.3420340E-18
   61.89400       -4.3141005E-18
   62.05550       -4.2824621E-18
   62.21700       -4.2603727E-18
   62.37850       -4.2571227E-18
   62.54000       -4.2743106E-18
   62.70150       -4.3052377E-18
   62.86300       -4.3376586E-18
   63.02450       -4.3587559E-18
   63.18600       -4.3603155E-18
   63.34750       -4.3420158E-18
   63.50900       -4.3115040E-18
   63.67050       -4.2812598E-18
   63.83200       -4.2635387E-18
   63.99350       -4.2654362E-18
   64.15500       -4.2860839E-18
   64.31650       -4.3170598E-18
   64.47800       -4.3458415E-18
   64.63950       -4.3608705E-18
   64.80100       -4.3561846E-18
   64.96250       -4.3337692E-18
   65.12400       -4.3027011E-18
   65.28550       -4.2754662E-18
   65.44700       -4.2629522E-18
   65.60850       -4.2701305E-18
   65.77000       -4.2941448E-18
   65.93150       -4.3255359E-18
   66.09300       -4.3520784E-18
   66.25450       -4.3636714E-18
   66.41600       -4.3563223E-18
   66.57750       -4.3336472E-18
   66.73900       -4.3053274E-18
   66.90050       -4.2831652E-18
   67.06200       -4.2763472E-18
   67.22350       -4.2878115E-18
   67.38500       -4.3131435E-18
   67.54650       -4.3424215E-18
   67.70800       -4.3642293E-18
   67.86950       -4.3702260E-18
   68.03100       -4.3584382E-18
   68.19250       -4.3339926E-18
   68.35400       -4.3070141E-18
   68.51550       -4.2885679E-18
   68.67700       -4.2862708E-18
   68.83850       -4.3013144E-18
   69.00000       -4.3280592E-18
   69.16150       -4.3563264E-18
   69.32300       -4.3754438E-18
   69.48450       -4.3784366E-18
   69.64600       -4.3647041E-18
   69.80750       -4.3401654E-18
   69.96900       -4.3148379E-18
   70.13050       -4.2988519E-18
   70.29200       -4.2984726E-18
   70.45350       -4.3137002E-18
   70.61500       -4.3383555E-18
   70.77650       -4.3625932E-18
   70.93800       -4.3768211E-18
   71.09950       -4.3754839E-18
   71.26100       -4.3592228E-18
   71.42250       -4.3345811E-18
   71.58400       -4.3114006E-18
   71.74550       -4.2989251E-18
   71.90700       -4.3021635E-18
   72.06850       -4.3199259E-18
   72.23000       -4.3453001E-18
   72.39150       -4.3683718E-18
   72.55300       -4.3801207E-18
   72.71450       -4.3759654E-18
   72.87600       -4.3575664E-18
   73.03750       -4.3321732E-18
   73.19900       -4.3097843E-18
   73.36050       -4.2992233E-18
   73.52200       -4.3046789E-18
   73.68350       -4.3240697E-18
   73.84500       -4.3498740E-18
   74.00650       -4.3721028E-18
   74.16800       -4.3822428E-18
   74.32950       -4.3766101E-18
   74.49100       -4.3577889E-18
   74.65250       -4.3335827E-18
   74.81400       -4.3138929E-18
   74.97550       -4.3067576E-18
   75.13700       -4.3151320E-18
   75.29850       -4.3356841E-18
   75.46000       -4.3601087E-18
   75.62150       -4.3784353E-18
   75.78300       -4.3830237E-18
   75.94450       -4.3716562E-18
   76.10600       -4.3484856E-18
   76.26750       -4.3224418E-18
   76.42900       -4.3037227E-18
   76.59050       -4.2997531E-18
   76.75200       -4.3122249E-18
   76.91350       -4.3364054E-18
   77.07500       -4.3630072E-18
   77.23650       -4.3818863E-18
   77.39800       -4.3860954E-18
   77.55950       -4.3746704E-18
   77.72100       -4.3530227E-18
   77.88250       -4.3307682E-18
   78.04400       -4.3178538E-18
   78.20550       -4.3205314E-18
   78.36700       -4.3388038E-18
   78.52850       -4.3663858E-18
   78.69000       -4.3932042E-18
   78.85150       -4.4094471E-18
   79.01300       -4.4095241E-18
   79.17450       -4.3943350E-18
   79.33600       -4.3709158E-18
   79.49750       -4.3495936E-18
   79.65900       -4.3397907E-18
   79.82050       -4.3461848E-18
   79.98200       -4.3667770E-18
   80.14350       -4.3936761E-18
   80.30500       -4.4162854E-18
   80.46650       -4.4256040E-18
   80.62800       -4.4179005E-18
   80.78950       -4.3962536E-18
   80.95100       -4.3693235E-18
   81.11250       -4.3478520E-18
   81.27400       -4.3403126E-18
   81.43550       -4.3494786E-18
   81.59700       -4.3713203E-18
   81.75850       -4.3966730E-18
   81.92000       -4.4149992E-18
   82.08150       -4.4187078E-18
   82.24300       -4.4062522E-18
   82.40450       -4.3827400E-18
   82.56600       -4.3578145E-18
   82.72750       -4.3416733E-18
   82.88900       -4.3408747E-18
   83.05050       -4.3556419E-18
   83.21200       -4.3797865E-18
   83.37350       -4.4032582E-18
   83.53500       -4.4162821E-18
   83.69650       -4.4133659E-18
   83.85800       -4.3955344E-18
   84.01950       -4.3698864E-18
   84.18100       -4.3466612E-18
   84.34250       -4.3350460E-18
   84.50400       -4.3394420E-18
   84.66550       -4.3577235E-18
   84.82700       -4.3821771E-18
   84.98850       -4.4027230E-18
   85.15000       -4.4110572E-18
   85.31150       -4.4040229E-18
   85.47300       -4.3848220E-18
   85.63450       -4.3616022E-18
   85.79600       -4.3440387E-18
   85.95750       -4.3393328E-18
   86.11900       -4.3492888E-18
   86.28050       -4.3696507E-18
   86.44200       -4.3919440E-18
   86.60350       -4.4070272E-18
   86.76500       -4.4088689E-18
   86.92650       -4.3969985E-18
   87.08800       -4.3766354E-18
   87.24950       -4.3564869E-18
   87.41100       -4.3451471E-18
   87.57250       -4.3476063E-18
   87.73400       -4.3632855E-18
   87.89550       -4.3863796E-18
   88.05700       -4.4083147E-18
   88.21850       -4.4212713E-18
   88.38000       -4.4213188E-18
   88.54150       -4.4098781E-18
   88.70300       -4.3929726E-18
   88.86450       -4.3786235E-18
   89.02600       -4.3735111E-18
   89.18750       -4.3802783E-18
   89.34900       -4.3965617E-18
   89.51050       -4.4160927E-18
   89.67200       -4.4313509E-18
   89.83350       -4.4366527E-18
   89.99500       -4.4304005E-18
   90.15650       -4.4156092E-18
   90.31800       -4.3985552E-18
   90.47950       -4.3861599E-18
   90.64100       -4.3831974E-18
   90.80250       -4.3904629E-18
   90.96400       -4.4045966E-18
   91.12550       -4.4195702E-18
   91.28700       -4.4291845E-18
   91.44850       -4.4295427E-18
   91.61000       -4.4205210E-18
   91.77150       -4.4056860E-18
   91.93300       -4.3907628E-18
   92.09450       -4.3813069E-18
   92.25600       -4.3805339E-18
   92.41750       -4.3881510E-18
   92.57900       -4.4006091E-18
   92.74050       -4.4126227E-18
   92.90200       -4.4193092E-18
   93.06350       -4.4180953E-18
   93.22500       -4.4096465E-18
   93.38650       -4.3975031E-18
   93.54800       -4.3866045E-18
   93.70950       -4.3813218E-18
   93.87100       -4.3837760E-18
   94.03250       -4.3930851E-18
   94.19400       -4.4058047E-18
   94.35550       -4.4173492E-18
   94.51700       -4.4238095E-18
   94.67850       -4.4234550E-18
   94.84000       -4.4173430E-18
   95.00150       -4.4088239E-18
   95.16300       -4.4021692E-18
   95.32450       -4.4008705E-18
   95.48600       -4.4062857E-18
   95.64750       -4.4171387E-18
   95.80900       -4.4300514E-18
   95.97050       -4.4408693E-18
   96.13200       -4.4462554E-18
   96.29350       -4.4449319E-18
   96.45500       -4.4380986E-18
   96.61650       -4.4288933E-18
   96.77800       -4.4211174E-18
   96.93950       -4.4177520E-18
   97.10100       -4.4198237E-18
   97.26250       -4.4260681E-18
   97.42400       -4.4334863E-18
   97.58550       -4.4385775E-18
   97.74700       -4.4387401E-18
   97.90850       -4.4333138E-18
   98.07000       -4.4238484E-18
   98.23150       -4.4135123E-18
   98.39300       -4.4058725E-18
   98.55450       -4.4035291E-18
   98.71600       -4.4071314E-18
   98.87750       -4.4151539E-18
   99.03900       -4.4245105E-18
   99.20050       -4.4317632E-18
   99.36200       -4.4344495E-18
   99.52350       -4.4320135E-18
   99.68500       -4.4259738E-18
   99.84650       -4.4192753E-18
   100.0080       -4.4150852E-18
   100.1695       -4.4155100E-18
   100.3310       -4.4207522E-18
   100.4925       -4.4290306E-18
   100.6540       -4.4372967E-18
   100.8155       -4.4424591E-18
   100.9770       -4.4426237E-18
   101.1385       -4.4378500E-18
   101.3000       -4.4301320E-18
   101.4615       -4.4226022E-18
   101.6230       -4.4182901E-18
   101.7845       -4.4189287E-18
   101.9460       -4.4242892E-18
   102.1075       -4.4323005E-18
   102.2690       -4.4398986E-18
   102.4305       -4.4442549E-18
   102.5920       -4.4438934E-18
   102.7535       -4.4392434E-18
   102.9150       -4.4324270E-18
   103.0765       -4.4263675E-18
   103.2380       -4.4236043E-18
   103.3995       -4.4252852E-18
   103.5610       -4.4307396E-18
   103.7225       -4.4377905E-18
   103.8840       -4.4436614E-18
   104.0455       -4.4460999E-18
   104.2070       -4.4442657E-18
   104.3685       -4.4390375E-18
   104.5300       -4.4326243E-18
   104.6915       -4.4276625E-18
   104.8530       -4.4261661E-18
   105.0145       -4.4287548E-18
   105.1760       -4.4344569E-18
   105.3375       -4.4411410E-18
   105.4990       -4.4463936E-18
   105.6605       -4.4484752E-18
   105.8220       -4.4469788E-18
   105.9835       -4.4429397E-18
   106.1450       -4.4383736E-18
   106.3065       -4.4354434E-18
   106.4680       -4.4356014E-18
   106.6295       -4.4390445E-18
   106.7910       -4.4446859E-18
   106.9525       -4.4506242E-18
   107.1140       -4.4549140E-18
   107.2755       -4.4563106E-18
   107.4370       -4.4547072E-18
   107.5985       -4.4511118E-18
   107.7600       -4.4471968E-18
   107.9215       -4.4446267E-18
   108.0830       -4.4444439E-18
   108.2445       -4.4467352E-18
   108.4060       -4.4506895E-18
   108.5675       -4.4549814E-18
   108.7290       -4.4583070E-18
   108.8905       -4.4598551E-18
   109.0520       -4.4595524E-18
   109.2135       -4.4580163E-18
   109.3750       -4.4562734E-18
   109.5365       -4.4553664E-18
   109.6980       -4.4560000E-18
   109.8595       -4.4583257E-18
   110.0210       -4.4619123E-18
   110.1825       -4.4658824E-18
   110.3440       -4.4691568E-18
   110.5055       -4.4707487E-18
   110.6670       -4.4700385E-18
   110.8285       -4.4669656E-18
   110.9900       -4.4620947E-18
   111.1515       -4.4565117E-18
   111.3130       -4.4515515E-18
   111.4745       -4.4484160E-18
   111.6360       -4.4477725E-18
   111.7975       -4.4494901E-18
   111.9590       -4.4526318E-18
   112.1205       -4.4557540E-18
   112.2820       -4.4574426E-18
   112.4435       -4.4569037E-18
   112.6050       -4.4543643E-18
   112.7665       -4.4510899E-18
   112.9280       -4.4489508E-18
   113.0895       -4.4496729E-18
   113.2510       -4.4540491E-18
   113.4125       -4.4614507E-18
   113.5740       -4.4698921E-18
   113.7355       -4.4766849E-18
   113.8970       -4.4794680E-18
   114.0585       -4.4772077E-18
   114.2200       -4.4707483E-18
   114.3815       -4.4626191E-18
   114.5430       -4.4561299E-18
   114.7045       -4.4540582E-18
   114.8660       -4.4574675E-18
   115.0275       -4.4651615E-18
   115.1890       -4.4740528E-18
   115.3505       -4.4803593E-18
   115.5120       -4.4811720E-18
   115.6735       -4.4757556E-18
   115.8350       -4.4660027E-18
   115.9965       -4.4557949E-18
   116.1580       -4.4494715E-18
   116.3195       -4.4500042E-18
   116.4810       -4.4576482E-18
   116.6425       -4.4696659E-18
   116.8040       -4.4813184E-18
   116.9655       -4.4877671E-18
   117.1270       -4.4861231E-18
   117.2885       -4.4767776E-18
   117.4500       -4.4633971E-18
   117.6115       -4.4515213E-18
   117.7730       -4.4462856E-18
   117.9345       -4.4502085E-18
   118.0960       -4.4619901E-18
   118.2575       -4.4768959E-18
   118.4190       -4.4886319E-18
   118.5805       -4.4919750E-18
   118.7420       -4.4850647E-18