  -27.90000        9.3572350E-18
  -27.73850        9.3884478E-18
  -27.57700        9.4403658E-18
  -27.41550        9.4967539E-18
  -27.25400        9.5418898E-18
  -27.09250        9.5665109E-18
  -26.93100        9.5711092E-18
  -26.76950        9.5652709E-18
  -26.60800        9.5633808E-18
  -26.44650        9.5784595E-18
  -26.28500        9.6166231E-18
  -26.12350        9.6744124E-18
  -25.96200        9.7400459E-18
  -25.80050        9.7980768E-18
  -25.63900        9.8355572E-18
  -25.47750        9.8472138E-18
  -25.31600        9.8375730E-18
  -25.15450        9.8191674E-18
  -24.99300        9.8075827E-18
  -24.83150        9.8153169E-18
  -24.67000        9.8469036E-18
  -24.50850        9.8972359E-18
  -24.34700        9.9537092E-18
  -24.18550        1.0001301E-17
  -24.02400        1.0028539E-17
  -23.86250        1.0031990E-17
  -23.70100        1.0017508E-17
  -23.53950        9.9978070E-18
  -23.37800        9.9873489E-18
  -23.21650        9.9966266E-18
  -23.05500        1.0028083E-17
  -22.89350        1.0075267E-17
  -22.73200        1.0125499E-17
  -22.57050        1.0164934E-17
  -22.40900        1.0184013E-17
  -22.24750        1.0181134E-17
  -22.08600        1.0163152E-17
  -21.92450        1.0142542E-17
  -21.76300        1.0132406E-17
  -21.60150        1.0141315E-17
  -21.44000        1.0169999E-17
  -21.27850        1.0211153E-17
  -21.11700        1.0252420E-17
  -20.95550        1.0281292E-17
  -20.79400        1.0290052E-17
  -20.63250        1.0278788E-17
  -20.47100        1.0255350E-17
  -20.30950        1.0232300E-17
  -20.14800        1.0222050E-17
  -19.98650        1.0232099E-17
  -19.82500        1.0262201E-17
  -19.66350        1.0304511E-17
  -19.50200        1.0346649E-17
  -19.34050        1.0376443E-17
  -19.17900        1.0386543E-17
  -19.01750        1.0377113E-17
  -18.85600        1.0355628E-17
  -18.69450        1.0333858E-17
  -18.53300        1.0323270E-17
  -18.37150        1.0330596E-17
  -18.21000        1.0355300E-17
  -18.04850        1.0389896E-17
  -17.88700        1.0422954E-17
  -17.72550        1.0443647E-17
  -17.56400        1.0446035E-17
  -17.40250        1.0431458E-17
  -17.24100        1.0408085E-17
  -17.07950        1.0387805E-17
  -16.91800        1.0381635E-17
  -16.75650        1.0395420E-17
  -16.59500        1.0427499E-17
  -16.43350        1.0469210E-17
  -16.27200        1.0508108E-17
  -16.11050        1.0532650E-17
  -15.94900        1.0536579E-17
  -15.78750        1.0521321E-17
  -15.62600        1.0495464E-17
  -15.46450        1.0471517E-17
  -15.30300        1.0461155E-17
  -15.14150        1.0470799E-17
  -14.98000        1.0499204E-17
  -14.81850        1.0538016E-17
  -14.65700        1.0575086E-17
  -14.49550        1.0599269E-17
  -14.33400        1.0604846E-17
  -14.17250        1.0593826E-17
  -14.01100        1.0575203E-17
  -13.84950        1.0561409E-17
  -13.68800        1.0563336E-17
  -13.52650        1.0585861E-17
  -13.36500        1.0625659E-17
  -13.20350        1.0672229E-17
  -13.04200        1.0711779E-17
  -12.88050        1.0732531E-17
  -12.71900        1.0729351E-17
  -12.55750        1.0705888E-17
  -12.39600        1.0673315E-17
  -12.23450        1.0646118E-17
  -12.07300        1.0636529E-17
  -11.91150        1.0649780E-17
  -11.75000        1.0682073E-17
  -11.58850        1.0722096E-17
  -11.42700        1.0755540E-17
  -11.26550        1.0770849E-17
  -11.10400        1.0763935E-17
  -10.94250        1.0739944E-17
  -10.78100        1.0711319E-17
  -10.61950        1.0692908E-17
  -10.45800        1.0695997E-17
  -10.29650        1.0723699E-17
  -10.13500        1.0769541E-17
  -9.973500        1.0819891E-17
  -9.812000        1.0859295E-17
  -9.650500        1.0876621E-17
  -9.489000        1.0869545E-17
  -9.327500        1.0845536E-17
  -9.166000        1.0818900E-17
  -9.004500        1.0805029E-17
  -8.843000        1.0814124E-17
  -8.681500        1.0846949E-17
  -8.520000        1.0894343E-17
  -8.358500        1.0940747E-17
  -8.197000        1.0970364E-17
  -8.035500        1.0973513E-17
  -7.874000        1.0950588E-17
  -7.712500        1.0912031E-17
  -7.551000        1.0874277E-17
  -7.389500        1.0853286E-17
  -7.228000        1.0858255E-17
  -7.066500        1.0888038E-17
  -6.905000        1.0931732E-17
  -6.743500        1.0973194E-17
  -6.582000        1.0997662E-17
  -6.420500        1.0997800E-17
  -6.259000        1.0976705E-17
  -6.097500        1.0946649E-17
  -5.936000        1.0924061E-17
  -5.774500        1.0922781E-17
  -5.613000        1.0948322E-17
  -5.451500        1.0995490E-17
  -5.290000        1.1050328E-17
  -5.128500        1.1095621E-17
  -4.967000        1.1117747E-17
  -4.805500        1.1112109E-17
  -4.644000        1.1084979E-17
  -4.482500        1.1050993E-17
  -4.321000        1.1027336E-17
  -4.159500        1.1026938E-17
  -3.998000        1.1053428E-17
  -3.836500        1.1099831E-17
  -3.675000        1.1151512E-17
  -3.513500        1.1192130E-17
  -3.352000        1.1210192E-17
  -3.190500        1.1203573E-17
  -3.029000        1.1180212E-17
  -2.867500        1.1154725E-17
  -2.706000        1.1142378E-17
  -2.544500        1.1152840E-17
  -2.383000        1.1186242E-17
  -2.221500        1.1233127E-17
  -2.060000        1.1278245E-17
  -1.898500        1.1306673E-17
  -1.737000        1.1309777E-17
  -1.575500        1.1288646E-17
  -1.414000        1.1253643E-17
  -1.252500        1.1220289E-17
  -1.091000        1.1203163E-17
 -0.9295000        1.1210213E-17
 -0.7680000        1.1239764E-17
 -0.6065000        1.1281333E-17
 -0.4450000        1.1319884E-17
 -0.2835000        1.1341803E-17
 -0.1220000        1.1340210E-17
  3.9500002E-02    1.1317536E-17
  0.2010000        1.1284409E-17
  0.3625000        1.1255340E-17
  0.5240000        1.1242967E-17
  0.6855000        1.1253133E-17
  0.8470000        1.1282724E-17
   1.008500        1.1321066E-17
   1.170000        1.1354266E-17
   1.331500        1.1370761E-17
   1.493000        1.1365874E-17
   1.654500        1.1343622E-17
   1.816000        1.1315081E-17
   1.977500        1.1294010E-17
   2.139000        1.1291461E-17
   2.300500        1.1311474E-17
   2.462000        1.1349529E-17
   2.623500        1.1394324E-17
   2.785000        1.1432151E-17
   2.946500        1.1452177E-17
   3.108000        1.1450561E-17
   3.269500        1.1431866E-17
   3.431000        1.1407219E-17
   3.592500        1.1389972E-17
   3.754000        1.1390533E-17
   3.915500        1.1412375E-17
   4.077000        1.1450738E-17
   4.238500        1.1494492E-17
   4.400000        1.1530454E-17
   4.561500        1.1548456E-17
   4.723000        1.1545244E-17
   4.884500        1.1525681E-17
   5.046000        1.1500813E-17
   5.207500        1.1483545E-17
   5.369000        1.1483585E-17
   5.530500        1.1503636E-17
   5.692000        1.1538306E-17
   5.853500        1.1576192E-17
   6.015000        1.1604334E-17
   6.176500        1.1613343E-17
   6.338000        1.1601197E-17
   6.499500        1.1574211E-17
   6.661000        1.1544753E-17
   6.822500        1.1526555E-17
   6.984000        1.1529407E-17
   7.145500        1.1555302E-17
   7.307000        1.1597539E-17
   7.468500        1.1643197E-17
   7.630000        1.1678045E-17
   7.791500        1.1692003E-17
   7.953000        1.1683044E-17
   8.114500        1.1657968E-17
   8.276000        1.1629730E-17
   8.437500        1.1612319E-17
   8.599000        1.1615193E-17
   8.760500        1.1639480E-17
   8.922000        1.1677456E-17
   9.083500        1.1715582E-17
   9.245000        1.1739924E-17
   9.406500        1.1741833E-17
   9.568000        1.1721618E-17
   9.729500        1.1688681E-17
   9.891000        1.1657993E-17
   10.05250        1.1644246E-17
   10.21400        1.1655970E-17
   10.37550        1.1691986E-17
   10.53700        1.1741663E-17
   10.69850        1.1788940E-17
   10.86000        1.1818601E-17
   11.02150        1.1822298E-17
   11.18300        1.1801920E-17
   11.34450        1.1768911E-17
   11.50600        1.1739729E-17
   11.66750        1.1729255E-17
   11.82900        1.1744756E-17
   11.99050        1.1782878E-17
   12.15200        1.1830898E-17
   12.31350        1.1871816E-17
   12.47500        1.1891227E-17
   12.63650        1.1883220E-17
   12.79800        1.1852885E-17
   12.95950        1.1814362E-17
   13.12100        1.1785178E-17
   13.28250        1.1779150E-17
   13.44400        1.1800724E-17
   13.60550        1.1843086E-17
   13.76700        1.1890840E-17
   13.92850        1.1926226E-17
   14.09000        1.1936345E-17
   14.25150        1.1918483E-17
   14.41300        1.1881330E-17
   14.57450        1.1841583E-17
   14.73600        1.1817266E-17
   14.89750        1.1820480E-17
   15.05900        1.1852498E-17
   15.22050        1.1903227E-17
   15.38200        1.1955246E-17
   15.54350        1.1990804E-17
   15.70500        1.1998946E-17
   15.86650        1.1979876E-17
   16.02800        1.1944790E-17
   16.18950        1.1911266E-17
   16.35100        1.1896075E-17
   16.51250        1.1908338E-17
   16.67400        1.1945829E-17
   16.83550        1.1995902E-17
   16.99700        1.2040669E-17
   17.15850        1.2064311E-17
   17.32000        1.2059539E-17
   17.48150        1.2030593E-17
   17.64300        1.1991540E-17
   17.80450        1.1960585E-17
   17.96600        1.1952716E-17
   18.12750        1.1973645E-17
   18.28900        1.2017526E-17
   18.45050        1.2069341E-17
   18.61200        1.2110955E-17
   18.77350        1.2128397E-17
   18.93500        1.2117407E-17
   19.09650        1.2085036E-17
   19.25800        1.2046694E-17
   19.41950        1.2019887E-17
   19.58100        1.2017207E-17
   19.74250        1.2041386E-17
   19.90400        1.2084388E-17
   20.06550        1.2130830E-17
   20.22700        1.2164288E-17
   20.38850        1.2173929E-17
   20.55000        1.2158766E-17
   20.71150        1.2127913E-17
   20.87300        1.2096764E-17
   21.03450        1.2080708E-17
   21.19600        1.2088929E-17
   21.35750        1.2120750E-17
   21.51900        1.2165966E-17
   21.68050        1.2208947E-17
   21.84200        1.2234861E-17
   22.00350        1.2235504E-17
   22.16500        1.2212458E-17
   22.32650        1.2176377E-17
   22.48800        1.2142741E-17
   22.64950        1.2125794E-17
   22.81100        1.2133081E-17
   22.97250        1.2162683E-17
   23.13400        1.2204202E-17
   23.29550        1.2243019E-17
   23.45700        1.2266123E-17
   23.61850        1.2267178E-17
   23.78000        1.2248886E-17
   23.94150        1.2221759E-17
   24.10300        1.2199826E-17
   24.26450        1.2195029E-17
   24.42600        1.2212483E-17
   24.58750        1.2248472E-17
   24.74900        1.2291921E-17
   24.91050        1.2328733E-17
   25.07200        1.2347275E-17
   25.23350        1.2342869E-17
   25.39500        1.2319558E-17
   25.55650        1.2288476E-17
   25.71800        1.2263491E-17
   25.87950        1.2255832E-17
   26.04100        1.2269775E-17
   26.20250        1.2301055E-17
   26.36400        1.2338592E-17
   26.52550        1.2368845E-17
   26.68700        1.2381086E-17
   26.84850        1.2371575E-17
   27.01000        1.2345001E-17
   27.17150        1.2312681E-17
   27.33300        1.2288194E-17
   27.49450        1.2282149E-17
   27.65600        1.2298115E-17
   27.81750        1.2331269E-17
   27.97900        1.2370301E-17
   28.14050        1.2401821E-17
   28.30200        1.2415598E-17
   28.46350        1.2408553E-17
   28.62500        1.2385992E-17
   28.78650        1.2359550E-17
   28.94800        1.2342621E-17
   29.10950        1.2345054E-17
   29.27100        1.2369171E-17
   29.43250        1.2408689E-17
   29.59400        1.2451026E-17
   29.75550        1.2482122E-17
   29.91700        1.2491933E-17
   30.07850        1.2478448E-17
   30.24000        1.2448607E-17
   30.40150        1.2415722E-17
   30.56300        1.2394362E-17
   30.72450        1.2394665E-17
   30.88600        1.2418339E-17
   31.04750        1.2457942E-17
   31.20900        1.2499787E-17
   31.37050        1.2529351E-17
   31.53200        1.2537078E-17
   31.69350        1.2522242E-17
   31.85500        1.2493311E-17
   32.01650        1.2464611E-17
   32.17800        1.2450579E-17
   32.33950        1.2459895E-17
   32.50100        1.2491846E-17
   32.66250        1.2536439E-17
   32.82400        1.2578271E-17
   32.98550        1.2602645E-17
   33.14700        1.2601506E-17
   33.30850        1.2576790E-17
   33.47000        1.2539796E-17
   33.63150        1.2506783E-17
   33.79300        1.2492518E-17
   33.95450        1.2504339E-17
   34.11600        1.2539151E-17
   34.27750        1.2584591E-17
   34.43900        1.2623945E-17
   34.60050        1.2642845E-17
   34.76200        1.2635091E-17
   34.92350        1.2605204E-17
   35.08500        1.2566672E-17
   35.24650        1.2536552E-17
   35.40800        1.2528604E-17
   35.56950        1.2547719E-17
   35.73100        1.2587914E-17
   35.89250        1.2634745E-17
   36.05400        1.2671171E-17
   36.21550        1.2684504E-17
   36.37700        1.2671628E-17
   36.53850        1.2640335E-17
   36.70000        1.2606218E-17
   36.86150        1.2586354E-17
   37.02300        1.2592317E-17
   37.18450        1.2625396E-17
   37.34600        1.2675942E-17
   37.50750        1.2727150E-17
   37.66900        1.2761755E-17
   37.83050        1.2768931E-17
   37.99200        1.2748591E-17
   38.15350        1.2711353E-17
   38.31500        1.2674180E-17
   38.47650        1.2653479E-17
   38.63800        1.2658473E-17
   38.79950        1.2687530E-17
   38.96100        1.2728922E-17
   39.12250        1.2765714E-17
   39.28400        1.2782736E-17
   39.44550        1.2772810E-17
   39.60700        1.2739700E-17
   39.76850        1.2696584E-17
   39.93000        1.2660731E-17
   40.09150        1.2646525E-17
   40.25300        1.2659718E-17
   40.41450        1.2695206E-17
   40.57600        1.2739198E-17
   40.73750        1.2774878E-17
   40.89900        1.2789218E-17
   41.06050        1.2778192E-17
   41.22200        1.2748294E-17
   41.38350        1.2713811E-17
   41.54500        1.2690977E-17
   41.70650        1.2691421E-17
   41.86800        1.2717526E-17
   42.02950        1.2761555E-17
   42.19100        1.2808812E-17
   42.35250        1.2843547E-17
   42.51400        1.2855180E-17
   42.67550        1.2842369E-17
   42.83700        1.2813350E-17
   42.99850        1.2782462E-17
   43.16000        1.2764322E-17
   43.32150        1.2768019E-17
   43.48300        1.2793617E-17
   43.64450        1.2832327E-17
   43.80600        1.2870207E-17
   43.96750        1.2893844E-17
   44.12900        1.2895747E-17
   44.29050        1.2877281E-17
   44.45200        1.2848041E-17
   44.61350        1.2821962E-17
   44.77500        1.2811762E-17
   44.93650        1.2823939E-17
   45.09800        1.2856274E-17
   45.25950        1.2898782E-17
   45.42100        1.2937676E-17
   45.58250        1.2960744E-17
   45.74400        1.2961999E-17
   45.90550        1.2943826E-17
   46.06700        1.2915832E-17
   46.22850        1.2890928E-17
   46.39000        1.2880224E-17
   46.55150        1.2888740E-17
   46.71300        1.2913600E-17
   46.87450        1.2945320E-17
   47.03600        1.2971669E-17
   47.19750        1.2982515E-17
   47.35900        1.2973803E-17
   47.52050        1.2949107E-17
   47.68200        1.2918216E-17
   47.84350        1.2893330E-17
   48.00500        1.2884359E-17
   48.16650        1.2895155E-17
   48.32800        1.2922089E-17
   48.48950        1.2955523E-17
   48.65100        1.2983568E-17
   48.81250        1.2996688E-17
   48.97400        1.2991372E-17
   49.13550        1.2971468E-17
   49.29700        1.2946685E-17
   49.45850        1.2928831E-17
   49.62000        1.2927241E-17
   49.78150        1.2945144E-17
   49.94300        1.2978379E-17
   50.10450        1.3016951E-17
   50.26600        1.3048840E-17
   50.42750        1.3064617E-17
   50.58900        1.3061057E-17
   50.75050        1.3042368E-17
   50.91200        1.3018527E-17
   51.07350        1.3001350E-17
   51.23500        1.2999825E-17
   51.39650        1.3016523E-17
   51.55800        1.3046509E-17
   51.71950        1.3079216E-17
   51.88100        1.3102580E-17
   52.04250        1.3107833E-17
   52.20400        1.3093070E-17
   52.36550        1.3064145E-17
   52.52700        1.3032516E-17
   52.68850        1.3010836E-17
   52.85000        1.3007997E-17
   53.01150        1.3025607E-17
   53.17300        1.3057301E-17
   53.33450        1.3091207E-17
   53.49600        1.3114640E-17
   53.65750        1.3119165E-17
   53.81900        1.3104018E-17
   53.98050        1.3076497E-17
   54.14200        1.3049120E-17
   54.30350        1.3034649E-17
   54.46500        1.3040961E-17
   54.62650        1.3067812E-17
   54.78800        1.3106840E-17
   54.94950        1.3144830E-17
   55.11100        1.3168965E-17
   55.27250        1.3171967E-17
   55.43400        1.3155051E-17
   55.59550        1.3127463E-17
   55.75700        1.3102760E-17
   55.91850        1.3093322E-17
   56.08000        1.3105280E-17
   56.24150        1.3135953E-17
   56.40300        1.3174844E-17
   56.56450        1.3207828E-17
   56.72600        1.3222857E-17
   56.88750        1.3214884E-17
   57.04900        1.3187983E-17
   57.21050        1.3153800E-17
   57.37200        1.3126925E-17
   57.53350        1.3119060E-17
   57.69500        1.3134315E-17
   57.85650        1.3167587E-17
   58.01800        1.3206642E-17
   58.17950        1.3237083E-17
   58.34100        1.3248180E-17
   58.50250        1.3237192E-17
   58.66400        1.3210431E-17
   58.82550        1.3180636E-17
   58.98700        1.3161722E-17
   59.14850        1.3163081E-17
   59.31000        1.3185729E-17
   59.47150        1.3221877E-17
   59.63300        1.3258113E-17
   59.79450        1.3280849E-17
   59.95600        1.3281847E-17
   60.11750        1.3261559E-17
   60.27900        1.3228933E-17
   60.44050        1.3197793E-17
   60.60200        1.3181265E-17
   60.76350        1.3186534E-17
   60.92500        1.3212032E-17
   61.08650        1.3248189E-17
   61.24800        1.3281380E-17
   61.40950        1.3299465E-17
   61.57100        1.3296658E-17
   61.73250        1.3275757E-17
   61.89400        1.3246905E-17
   62.05550        1.3223391E-17
   62.21700        1.3216258E-17
   62.37850        1.3229875E-17
   62.54000        1.3260266E-17
   62.70150        1.3296812E-17
   62.86300        1.3326578E-17
   63.02450        1.3339521E-17
   63.18600        1.3332443E-17
   63.34750        1.3310157E-17
   63.50900        1.3283425E-17
   63.67050        1.3264576E-17
   63.83200        1.3262554E-17
   63.99350        1.3279419E-17
   64.15500        1.3309640E-17
   64.31650        1.3342417E-17
   64.47800        1.3366061E-17
   64.63950        1.3372634E-17
   64.80100        1.3361046E-17
   64.96250        1.3337379E-17
   65.12400        1.3312383E-17
   65.28550        1.3297187E-17
   65.44700        1.3298938E-17
   65.60850        1.3318088E-17
   65.77000        1.3348363E-17
   65.93150        1.3379343E-17
   66.09300        1.3400624E-17
   66.25450        1.3405869E-17
   66.41600        1.3395194E-17
   66.57750        1.3374976E-17
   66.73900        1.3355226E-17
   66.90050        1.3345591E-17
   67.06200        1.3351570E-17
   67.22350        1.3372417E-17
   67.38500        1.3401501E-17
   67.54650        1.3428960E-17
   67.70800        1.3445575E-17
   67.86950        1.3446342E-17
   68.03100        1.3432369E-17
   68.19250        1.3410402E-17
   68.35400        1.3390161E-17
   68.51550        1.3380576E-17
   68.67700        1.3386359E-17
   68.83850        1.3406234E-17
   69.00000        1.3433496E-17
   69.16150        1.3458657E-17
   69.32300        1.3473143E-17
   69.48450        1.3472613E-17
   69.64600        1.3458612E-17
   69.80750        1.3437951E-17
   69.96900        1.3420039E-17
   70.13050        1.3413227E-17
   70.29200        1.3421559E-17
   70.45350        1.3443206E-17
   70.61500        1.3471186E-17
   70.77650        1.3496070E-17
   70.93800        1.3509672E-17
   71.09950        1.3508237E-17
   71.26100        1.3493920E-17
   71.42250        1.3473962E-17
   71.58400        1.3457861E-17
   71.74550        1.3453648E-17
   71.90700        1.3464689E-17
   72.06850        1.3488305E-17
   72.23000        1.3516739E-17
   72.39150        1.3540133E-17
   72.55300        1.3550357E-17
   72.71450        1.3544208E-17
   72.87600        1.3524707E-17
   73.03750        1.3499968E-17
   73.19900        1.3480066E-17
   73.36050        1.3473105E-17
   73.52200        1.3482036E-17
   73.68350        1.3503492E-17
   73.84500        1.3529113E-17
   74.00650        1.3548868E-17
   74.16800        1.3555071E-17
   74.32950        1.3545500E-17
   74.49100        1.3524362E-17
   74.65250        1.3500682E-17
   74.81400        1.3484752E-17
   74.97550        1.3484000E-17
   75.13700        1.3499954E-17
   75.29850        1.3527518E-17
   75.46000        1.3556892E-17
   75.62150        1.3577405E-17
   75.78300        1.3581744E-17
   75.94450        1.3568904E-17
   76.10600        1.3544633E-17
   76.26750        1.3519196E-17
   76.42900        1.3503299E-17
   76.59050        1.3503808E-17
   76.75200        1.3520974E-17
   76.91350        1.3548310E-17
   77.07500        1.3575193E-17
   77.23650        1.3591167E-17
   77.39800        1.3590226E-17
   77.55950        1.3573334E-17
   77.72100        1.3548148E-17
   77.88250        1.3526028E-17
   78.04400        1.3517506E-17
   78.20550        1.3528060E-17
   78.36700        1.3555879E-17
   78.52850        1.3592563E-17
   78.69000        1.3626485E-17
   78.85150        1.3647470E-17
   79.01300        1.3650892E-17
   79.17450        1.3639533E-17
   79.33600        1.3622426E-17
   79.49750        1.3611146E-17
   79.65900        1.3615045E-17
   79.82050        1.3637365E-17
   79.98200        1.3673825E-17
   80.14350        1.3714238E-17
   80.30500        1.3746558E-17
   80.46650        1.3761683E-17
   80.62800        1.3757086E-17
   80.78950        1.3737802E-17
   80.95100        1.3714364E-17
   81.11250        1.3698532E-17
   81.27400        1.3698539E-17
   81.43550        1.3715789E-17
   81.59700        1.3744336E-17
   81.75850        1.3773343E-17
   81.92000        1.3791515E-17
   82.08150        1.3791711E-17
   82.24300        1.3773851E-17
   82.40450        1.3744951E-17
   82.56600        1.3716283E-17
   82.72750        1.3698825E-17
   82.88900        1.3698842E-17
   83.05050        1.3715397E-17
   83.21200        1.3740776E-17
   83.37350        1.3763641E-17
   83.53500        1.3773635E-17
   83.69650        1.3765557E-17
   83.85800        1.3741430E-17
   84.01950        1.3709672E-17
   84.18100        1.3681687E-17
   84.34250        1.3667313E-17
   84.50400        1.3670931E-17
   84.66550        1.3689808E-17
   84.82700        1.3715291E-17
   84.98850        1.3736361E-17
   85.15000        1.3744070E-17
   85.31150        1.3735102E-17
   85.47300        1.3713025E-17
   85.63450        1.3686779E-17
   85.79600        1.3667041E-17
   85.95750        1.3661948E-17
   86.11900        1.3673875E-17
   86.28050        1.3698556E-17
   86.44200        1.3726853E-17
   86.60350        1.3748431E-17
   86.76500        1.3755876E-17
   86.92650        1.3747604E-17
   87.08800        1.3728438E-17
   87.24950        1.3707653E-17
   87.41100        1.3695299E-17
   87.57250        1.3698252E-17
   87.73400        1.3717558E-17
   87.89550        1.3748088E-17
   88.05700        1.3780602E-17
   88.21850        1.3805384E-17
   88.38000        1.3816025E-17
   88.54150        1.3811850E-17
   88.70300        1.3798085E-17
   88.86450        1.3783708E-17
   89.02600        1.3777856E-17
   89.18750        1.3786204E-17
   89.34900        1.3808716E-17
   89.51050        1.3839648E-17
   89.67200        1.3869786E-17
   89.83350        1.3890028E-17
   89.99500        1.3894929E-17
   90.15650        1.3884804E-17
   90.31800        1.3865607E-17
   90.47950        1.3846600E-17
   90.64100        1.3836757E-17
   90.80250        1.3841292E-17
   90.96400        1.3859645E-17
   91.12550        1.3885749E-17
   91.28700        1.3910425E-17
   91.44850        1.3925007E-17
   91.61000        1.3924755E-17
   91.77150        1.3910744E-17
   91.93300        1.3889449E-17
   92.09450        1.3870227E-17
   92.25600        1.3861641E-17
   92.41750        1.3868087E-17
   92.57900        1.3888020E-17
   92.74050        1.3914511E-17
   92.90200        1.3937899E-17
   93.06350        1.3949541E-17
   93.22500        1.3945191E-17
   93.38650        1.3926686E-17
   93.54800        1.3901263E-17
   93.70950        1.3878780E-17
   93.87100        1.3867875E-17
   94.03250        1.3872600E-17
   94.19400        1.3890813E-17
   94.35550        1.3915009E-17
   94.51700        1.3935262E-17
   94.67850        1.3943181E-17
   94.84000        1.3935302E-17
   95.00150        1.3914591E-17
   95.16300        1.3889428E-17
   95.32450        1.3870411E-17
   95.48600        1.3866225E-17
   95.64750        1.3880178E-17
   95.80900        1.3908789E-17
   95.97050        1.3943041E-17
   96.13200        1.3971830E-17
   96.29350        1.3986294E-17
   96.45500        1.3983320E-17
   96.61650        1.3966784E-17
   96.77800        1.3946042E-17
   96.93950        1.3932163E-17
   97.10100        1.3933452E-17
   97.26250        1.3951984E-17
   97.42400        1.3982643E-17
   97.58550        1.4015025E-17
   97.74700        1.4037559E-17
   97.90850        1.4042168E-17
   98.07000        1.4027632E-17
   98.23150        1.4000239E-17
   98.39300        1.3971433E-17
   98.55450        1.3953328E-17
   98.71600        1.3953878E-17
   98.87750        1.3973643E-17
   99.03900        1.4005466E-17
   99.20050        1.4037270E-17
   99.36200        1.4056851E-17
   99.52350        1.4056798E-17
   99.68500        1.4037540E-17
   99.84650        1.4007256E-17
   100.0080        1.3978656E-17
   100.1695        1.3963868E-17
   100.3310        1.3969512E-17
   100.4925        1.3993927E-17
   100.6540        1.4027734E-17
   100.8155        1.4057556E-17
   100.9770        1.4071409E-17
   101.1385        1.4063647E-17
   101.3000        1.4037369E-17
   101.4615        1.4003332E-17
   101.6230        1.3975704E-17
   101.7845        1.3966371E-17
   101.9460        1.3980062E-17
   102.1075        1.4012325E-17
   102.2690        1.4051210E-17
   102.4305        1.4082012E-17
   102.5920        1.4093219E-17
   102.7535        1.4081216E-17
   102.9150        1.4051833E-17
   103.0765        1.4018051E-17
   103.2380        1.3994761E-17
   103.3995        1.3992685E-17
   103.5610        1.4013943E-17
   103.7225        1.4051102E-17
   103.8840        1.4090123E-17
   104.0455        1.4116051E-17
   104.2070        1.4119123E-17
   104.3685        1.4098807E-17
   104.5300        1.4064095E-17
   104.6915        1.4029890E-17
   104.8530        1.4010951E-17
   105.0145        1.4015867E-17
   105.1760        1.4043515E-17
   105.3375        1.4083481E-17
   105.4990        1.4120284E-17
   105.6605        1.4139700E-17
   105.8220        1.4134584E-17
   105.9835        1.4107842E-17
   106.1450        1.4071285E-17
   106.3065        1.4040866E-17
   106.4680        1.4030189E-17
   106.6295        1.4044961E-17
   106.7910        1.4080651E-17
   106.9525        1.4124299E-17
   107.1140        1.4159765E-17
   107.2755        1.4174273E-17
   107.4370        1.4163599E-17
   107.5985        1.4133795E-17
   107.7600        1.4098762E-17
   107.9215        1.4074612E-17
   108.0830        1.4073155E-17
   108.2445        1.4097125E-17
   108.4060        1.4139091E-17
   108.5675        1.4184490E-17
   108.7290        1.4217556E-17
   108.8905        1.4227718E-17
   109.0520        1.4213888E-17
   109.2135        1.4184875E-17
   109.3750        1.4155767E-17
   109.5365        1.4141743E-17
   109.6980        1.4151828E-17
   109.8595        1.4185125E-17
   110.0210        1.4231088E-17
   110.1825        1.4273688E-17
   110.3440        1.4297830E-17
   110.5055        1.4295387E-17
   110.6670        1.4268434E-17
   110.8285        1.4228377E-17
   110.9900        1.4191316E-17
   111.1515        1.4171563E-17
   111.3130        1.4175919E-17
   111.4745        1.4201033E-17
   111.6360        1.4234910E-17
   111.7975        1.4261911E-17
   111.9590        1.4269233E-17
   112.1205        1.4252204E-17
   112.2820        1.4216262E-17
   112.4435        1.4174804E-17
   112.6050        1.4143807E-17
   112.7665        1.4135382E-17
   112.9280        1.4152863E-17
   113.0895        1.4189450E-17
   113.2510        1.4230891E-17
   113.4125        1.4261183E-17
   113.5740        1.4268932E-17
   113.7355        1.4251854E-17
   113.8970        1.4217599E-17
   114.0585        1.4180589E-17
   114.2200        1.4156134E-17
   114.3815        1.4154238E-17
   114.5430        1.4175551E-17
   114.7045        1.4211125E-17
   114.8660        1.4246057E-17
   115.0275        1.4265542E-17
   115.1890        1.4260893E-17
   115.3505        1.4233097E-17
   115.5120        1.4192461E-17
   115.6735        1.4154511E-17
   115.8350        1.4133772E-17
   115.9965        1.4137954E-17
   116.1580        1.4164901E-17
   116.3195        1.4203528E-17
   116.4810        1.4238384E-17
   116.6425        1.4255965E-17
   116.8040        1.4250228E-17
   116.9655        1.4225053E-17
   117.1270        1.4192666E-17
   117.2885        1.4168623E-17
   117.4500        1.4165453E-17
   117.6115        1.4187493E-17
   117.7730        1.4229050E-17
   117.9345        1.4276643E-17
   118.0960        1.4314394E-17
   118.2575        1.4330398E-17
   118.4190        1.4321459E-17
   118.5805        1.4294301E-17
   118.7420        1.4262759E-17