  -27.90000        9.2546522E-18
  -27.73850        9.2832412E-18
  -27.57700        9.3313136E-18
  -27.41550        9.3846842E-18
  -27.25400        9.4293230E-18
  -27.09250        9.4564413E-18
  -26.93100        9.4654857E-18
  -26.76950        9.4639248E-18
  -26.60800        9.4639314E-18
  -26.44650        9.4773019E-18
  -26.28500        9.5105885E-18
  -26.12350        9.5623510E-18
  -25.96200        9.6235756E-18
  -25.80050        9.6810895E-18
  -25.63900        9.7226123E-18
  -25.47750        9.7414993E-18
  -25.31600        9.7393089E-18
  -25.15450        9.7252344E-18
  -24.99300        9.7126042E-18
  -24.83150        9.7138342E-18
  -24.67000        9.7357413E-18
  -24.50850        9.7770407E-18
  -24.34700        9.8289331E-18
  -24.18550        9.8785408E-18
  -24.02400        9.9138606E-18
  -23.86250        9.9283106E-18
  -23.70100        9.9231680E-18
  -23.53950        9.9069908E-18
  -23.37800        9.8922745E-18
  -23.21650        9.8906697E-18
  -23.05500        9.9085757E-18
  -22.89350        9.9447897E-18
  -22.73200        9.9910646E-18
  -22.57050        1.0035317E-17
  -22.40900        1.0066245E-17
  -22.24750        1.0077578E-17
  -22.08600        1.0070357E-17
  -21.92450        1.0052427E-17
  -21.76300        1.0035368E-17
  -21.60150        1.0030051E-17
  -21.44000        1.0042536E-17
  -21.27850        1.0071832E-17
  -21.11700        1.0110361E-17
  -20.95550        1.0146896E-17
  -20.79400        1.0170867E-17
  -20.63250        1.0176385E-17
  -20.47100        1.0164486E-17
  -20.30950        1.0142764E-17
  -20.14800        1.0122558E-17
  -19.98650        1.0114740E-17
  -19.82500        1.0125686E-17
  -19.66350        1.0154932E-17
  -19.50200        1.0195361E-17
  -19.34050        1.0235827E-17
  -19.17900        1.0265257E-17
  -19.01750        1.0276680E-17
  -18.85600        1.0269713E-17
  -18.69450        1.0250589E-17
  -18.53300        1.0229756E-17
  -18.37150        1.0217923E-17
  -18.21000        1.0222073E-17
  -18.04850        1.0242900E-17
  -17.88700        1.0274628E-17
  -17.72550        1.0307282E-17
  -17.56400        1.0330542E-17
  -17.40250        1.0337741E-17
  -17.24100        1.0328499E-17
  -17.07950        1.0308978E-17
  -16.91800        1.0289659E-17
  -16.75650        1.0281431E-17
  -16.59500        1.0291457E-17
  -16.43350        1.0320358E-17
  -16.27200        1.0361795E-17
  -16.11050        1.0404638E-17
  -15.94900        1.0436950E-17
  -15.78750        1.0450310E-17
  -15.62600        1.0442879E-17
  -15.46450        1.0420064E-17
  -15.30300        1.0392488E-17
  -15.14150        1.0372055E-17
  -14.98000        1.0367534E-17
  -14.81850        1.0381357E-17
  -14.65700        1.0408841E-17
  -14.49550        1.0440143E-17
  -14.33400        1.0464207E-17
  -14.17250        1.0473222E-17
  -14.01100        1.0465856E-17
  -13.84950        1.0448002E-17
  -13.68800        1.0430714E-17
  -13.52650        1.0426055E-17
  -13.36500        1.0442450E-17
  -13.20350        1.0481294E-17
  -13.04200        1.0536164E-17
  -12.88050        1.0594972E-17
  -12.71900        1.0644283E-17
  -12.55750        1.0674195E-17
  -12.39600        1.0681894E-17
  -12.23450        1.0672557E-17
  -12.07300        1.0657204E-17
  -11.91150        1.0648326E-17
  -11.75000        1.0654946E-17
  -11.58850        1.0679026E-17
  -11.42700        1.0714613E-17
  -11.26550        1.0750082E-17
  -11.10400        1.0772630E-17
  -10.94250        1.0773290E-17
  -10.78100        1.0750546E-17
  -10.61950        1.0711098E-17
  -10.45800        1.0667497E-17
  -10.29650        1.0633503E-17
  -10.13500        1.0618982E-17
  -9.973500        1.0626272E-17
  -9.812000        1.0649474E-17
  -9.650500        1.0676917E-17
  -9.489000        1.0695866E-17
  -9.327500        1.0697636E-17
  -9.166000        1.0681128E-17
  -9.004500        1.0653377E-17
  -8.843000        1.0626911E-17
  -8.681500        1.0614898E-17
  -8.520000        1.0625981E-17
  -8.358500        1.0660806E-17
  -8.197000        1.0711585E-17
  -8.035500        1.0764899E-17
  -7.874000        1.0806645E-17
  -7.712500        1.0827255E-17
  -7.551000        1.0825157E-17
  -7.389500        1.0807174E-17
  -7.228000        1.0785735E-17
  -7.066500        1.0773984E-17
  -6.905000        1.0780709E-17
  -6.743500        1.0807032E-17
  -6.582000        1.0846134E-17
  -6.420500        1.0886082E-17
  -6.259000        1.0914618E-17
  -6.097500        1.0924055E-17
  -5.936000        1.0914329E-17
  -5.774500        1.0893074E-17
  -5.613000        1.0872671E-17
  -5.451500        1.0865443E-17
  -5.290000        1.0878858E-17
  -5.128500        1.0912593E-17
  -4.967000        1.0958582E-17
  -4.805500        1.1004008E-17
  -4.644000        1.1036107E-17
  -4.482500        1.1046914E-17
  -4.321000        1.1036171E-17
  -4.159500        1.1011320E-17
  -3.998000        1.0984609E-17
  -3.836500        1.0968464E-17
  -3.675000        1.0970888E-17
  -3.513500        1.0992632E-17
  -3.352000        1.1027165E-17
  -3.190500        1.1063402E-17
  -3.029000        1.1090096E-17
  -2.867500        1.1100195E-17
  -2.706000        1.1093495E-17
  -2.544500        1.1076626E-17
  -2.383000        1.1060395E-17
  -2.221500        1.1055550E-17
  -2.060000        1.1068587E-17
  -1.898500        1.1099200E-17
  -1.737000        1.1140306E-17
  -1.575500        1.1180650E-17
  -1.414000        1.1208948E-17
  -1.252500        1.1218040E-17
  -1.091000        1.1207483E-17
 -0.9295000        1.1183651E-17
 -0.7680000        1.1157336E-17
 -0.6065000        1.1139743E-17
 -0.4450000        1.1138415E-17
 -0.2835000        1.1154569E-17
 -0.1220000        1.1182806E-17
  3.9500002E-02    1.1213295E-17
  0.2010000        1.1235559E-17
  0.3625000        1.1242466E-17
  0.5240000        1.1232930E-17
  0.6855000        1.1212324E-17
  0.8470000        1.1190484E-17
   1.008500        1.1178033E-17
   1.170000        1.1182420E-17
   1.331500        1.1205116E-17
   1.493000        1.1241045E-17
   1.654500        1.1280412E-17
   1.816000        1.1312296E-17
   1.977500        1.1328642E-17
   2.139000        1.1327184E-17
   2.300500        1.1312199E-17
   2.462000        1.1292822E-17
   2.623500        1.1279511E-17
   2.785000        1.1280016E-17
   2.946500        1.1296336E-17
   3.108000        1.1323835E-17
   3.269500        1.1352888E-17
   3.431000        1.1372448E-17
   3.592500        1.1374243E-17
   3.754000        1.1356029E-17
   3.915500        1.1322650E-17
   4.077000        1.1284484E-17
   4.238500        1.1253815E-17
   4.400000        1.1240463E-17
   4.561500        1.1248290E-17
   4.723000        1.1273918E-17
   4.884500        1.1308129E-17
   5.046000        1.1339455E-17
   5.207500        1.1358592E-17
   5.369000        1.1361964E-17
   5.530500        1.1353061E-17
   5.692000        1.1341011E-17
   5.853500        1.1336920E-17
   6.015000        1.1349357E-17
   6.176500        1.1380744E-17
   6.338000        1.1426063E-17
   6.499500        1.1474446E-17
   6.661000        1.1513089E-17
   6.822500        1.1532019E-17
   6.984000        1.1527917E-17
   7.145500        1.1505491E-17
   7.307000        1.1475836E-17
   7.468500        1.1452373E-17
   7.630000        1.1445894E-17
   7.791500        1.1460587E-17
   7.953000        1.1492575E-17
   8.114500        1.1531544E-17
   8.276000        1.1564832E-17
   8.437500        1.1582407E-17
   8.599000        1.1580803E-17
   8.760500        1.1564481E-17
   8.922000        1.1544061E-17
   9.083500        1.1532130E-17
   9.245000        1.1538217E-17
   9.406500        1.1564930E-17
   9.568000        1.1606763E-17
   9.729500        1.1652062E-17
   9.891000        1.1687423E-17
   10.05250        1.1702818E-17
   10.21400        1.1695458E-17
   10.37550        1.1670899E-17
   10.53700        1.1640941E-17
   10.69850        1.1619124E-17
   10.86000        1.1615565E-17
   11.02150        1.1633121E-17
   11.18300        1.1666361E-17
   11.34450        1.1703747E-17
   11.50600        1.1732149E-17
   11.66750        1.1741959E-17
   11.82900        1.1730812E-17
   11.99050        1.1704481E-17
   12.15200        1.1674625E-17
   12.31350        1.1654268E-17
   12.47500        1.1652776E-17
   12.63650        1.1672273E-17
   12.79800        1.1706867E-17
   12.95950        1.1744976E-17
   13.12100        1.1773815E-17
   13.28250        1.1784310E-17
   13.44400        1.1774540E-17
   13.60550        1.1750387E-17
   13.76700        1.1723178E-17
   13.92850        1.1705251E-17
   14.09000        1.1705174E-17
   14.25150        1.1724454E-17
   14.41300        1.1757003E-17
   14.57450        1.1791534E-17
   14.73600        1.1815942E-17
   14.89750        1.1821997E-17
   15.05900        1.1808526E-17
   15.22050        1.1781899E-17
   15.38200        1.1753655E-17
   15.54350        1.1736186E-17
   15.70500        1.1738140E-17
   15.86650        1.1761273E-17
   16.02800        1.1799908E-17
   16.18950        1.1843179E-17
   16.35100        1.1879138E-17
   16.51250        1.1899173E-17
   16.67400        1.1901061E-17
   16.83550        1.1889521E-17
   16.99700        1.1874132E-17
   17.15850        1.1865444E-17
   17.32000        1.1870793E-17
   17.48150        1.1891418E-17
   17.64300        1.1921967E-17
   17.80450        1.1952540E-17
   17.96600        1.1972495E-17
   18.12750        1.1974559E-17
   18.28900        1.1957688E-17
   18.45050        1.1927613E-17
   18.61200        1.1894871E-17
   18.77350        1.1871067E-17
   18.93500        1.1864736E-17
   19.09650        1.1878357E-17
   19.25800        1.1907576E-17
   19.41950        1.1942928E-17
   19.58100        1.1973381E-17
   19.74250        1.1990392E-17
   19.90400        1.1990956E-17
   20.06550        1.1978564E-17
   20.22700        1.1961713E-17
   20.38850        1.1950565E-17
   20.55000        1.1953001E-17
   20.71150        1.1971572E-17
   20.87300        1.2002466E-17
   21.03450        1.2036902E-17
   21.19600        1.2064410E-17
   21.35750        1.2076795E-17
   21.51900        1.2071282E-17
   21.68050        1.2051666E-17
   21.84200        1.2027000E-17
   22.00350        1.2008308E-17
   22.16500        1.2004513E-17
   22.32650        1.2019108E-17
   22.48800        1.2048820E-17
   22.64950        1.2084770E-17
   22.81100        1.2115759E-17
   22.97250        1.2132426E-17
   23.13400        1.2130758E-17
   23.29550        1.2113618E-17
   23.45700        1.2089685E-17
   23.61850        1.2070200E-17
   23.78000        1.2064711E-17
   23.94150        1.2077413E-17
   24.10300        1.2105495E-17
   24.26450        1.2140129E-17
   24.42600        1.2169778E-17
   24.58750        1.2184567E-17
   24.74900        1.2180091E-17
   24.91050        1.2159170E-17
   25.07200        1.2130856E-17
   25.23350        1.2107059E-17
   25.39500        1.2098013E-17
   25.55650        1.2108353E-17
   25.71800        1.2135300E-17
   25.87950        1.2169693E-17
   26.04100        1.2199509E-17
   26.20250        1.2214544E-17
   26.36400        1.2210451E-17
   26.52550        1.2190566E-17
   26.68700        1.2164760E-17
   26.84850        1.2145739E-17
   27.01000        1.2144164E-17
   27.17150        1.2164478E-17
   27.33300        1.2203054E-17
   27.49450        1.2249423E-17
   27.65600        1.2290128E-17
   27.81750        1.2313748E-17
   27.97900        1.2315167E-17
   28.14050        1.2297422E-17
   28.30200        1.2270430E-17
   28.46350        1.2247068E-17
   28.62500        1.2238129E-17
   28.78650        1.2248130E-17
   28.94800        1.2273606E-17
   29.10950        1.2304552E-17
   29.27100        1.2328478E-17
   29.43250        1.2335467E-17
   29.59400        1.2322268E-17
   29.75550        1.2293795E-17
   29.91700        1.2261429E-17
   30.07850        1.2238758E-17
   30.24000        1.2236403E-17
   30.40150        1.2257922E-17
   30.56300        1.2298403E-17
   30.72450        1.2346259E-17
   30.88600        1.2387572E-17
   31.04750        1.2411286E-17
   31.20900        1.2413246E-17
   31.37050        1.2397559E-17
   31.53200        1.2374771E-17
   31.69350        1.2357597E-17
   31.85500        1.2355885E-17
   32.01650        1.2372777E-17
   32.17800        1.2403533E-17
   32.33950        1.2437456E-17
   32.50100        1.2462143E-17
   32.66250        1.2468387E-17
   32.82400        1.2453809E-17
   32.98550        1.2423847E-17
   33.14700        1.2389710E-17
   33.30850        1.2364118E-17
   33.47000        1.2356490E-17
   33.63150        1.2369426E-17
   33.79300        1.2397822E-17
   33.95450        1.2430926E-17
   34.11600        1.2456532E-17
   34.27750        1.2465664E-17
   34.43900        1.2455974E-17
   34.60050        1.2432570E-17
   34.76200        1.2405999E-17
   34.92350        1.2388184E-17
   35.08500        1.2387892E-17
   35.24650        1.2407461E-17
   35.40800        1.2441978E-17
   35.56950        1.2481210E-17
   35.73100        1.2513477E-17
   35.89250        1.2530016E-17
   36.05400        1.2528143E-17
   36.21550        1.2512086E-17
   36.37700        1.2491202E-17
   36.53850        1.2476301E-17
   36.70000        1.2475500E-17
   36.86150        1.2491167E-17
   37.02300        1.2519092E-17
   37.18450        1.2550163E-17
   37.34600        1.2573881E-17
   37.50750        1.2582385E-17
   37.66900        1.2573455E-17
   37.83050        1.2551400E-17
   37.99200        1.2525494E-17
   38.15350        1.2506561E-17
   38.31500        1.2502993E-17
   38.47650        1.2517661E-17
   38.63800        1.2546874E-17
   38.79950        1.2581739E-17
   38.96100        1.2611434E-17
   39.12250        1.2627162E-17
   39.28400        1.2625337E-17
   39.44550        1.2608834E-17
   39.60700        1.2585856E-17
   39.76850        1.2566844E-17
   39.93000        1.2560580E-17
   40.09150        1.2570947E-17
   40.25300        1.2595511E-17
   40.41450        1.2626501E-17
   40.57600        1.2653770E-17
   40.73750        1.2668669E-17
   40.89900        1.2667359E-17
   41.06050        1.2652314E-17
   41.22200        1.2631441E-17
   41.38350        1.2615098E-17
   41.54500        1.2612148E-17
   41.70650        1.2626495E-17
   41.86800        1.2655441E-17
   42.02950        1.2690513E-17
   42.19100        1.2720494E-17
   42.35250        1.2735545E-17
   42.51400        1.2730891E-17
   42.67550        1.2708676E-17
   42.83700        1.2677253E-17
   42.99850        1.2648157E-17
   43.16000        1.2631859E-17
   43.32150        1.2633903E-17
   43.48300        1.2652896E-17
   43.64450        1.2681110E-17
   43.80600        1.2707519E-17
   43.96750        1.2722102E-17
   44.12900        1.2719781E-17
   44.29050        1.2702481E-17
   44.45200        1.2678464E-17
   44.61350        1.2659203E-17
   44.77500        1.2654932E-17
   44.93650        1.2670606E-17
   45.09800        1.2703833E-17
   45.25950        1.2745610E-17
   45.42100        1.2783628E-17
   45.58250        1.2806899E-17
   45.74400        1.2809932E-17
   45.90550        1.2794845E-17
   46.06700        1.2770564E-17
   46.22850        1.2749398E-17
   46.39000        1.2742270E-17
   46.55150        1.2754462E-17
   46.71300        1.2783513E-17
   46.87450        1.2820096E-17
   47.03600        1.2851574E-17
   47.19750        1.2866867E-17
   47.35900        1.2860742E-17
   47.52050        1.2835887E-17
   47.68200        1.2801925E-17
   47.84350        1.2771769E-17
   48.00500        1.2756695E-17
   48.16650        1.2762067E-17
   48.32800        1.2785353E-17
   48.48950        1.2817211E-17
   48.65100        1.2845216E-17
   48.81250        1.2858776E-17
   48.97400        1.2853325E-17
   49.13550        1.2832154E-17
   49.29700        1.2805159E-17
   49.45850        1.2785002E-17
   49.62000        1.2782161E-17
   49.78150        1.2800795E-17
   49.94300        1.2837035E-17
   50.10450        1.2880351E-17
   50.26600        1.2917491E-17
   50.42750        1.2937451E-17
   50.58900        1.2935584E-17
   50.75050        1.2915280E-17
   50.91200        1.2886562E-17
   51.07350        1.2862197E-17
   51.23500        1.2852801E-17
   51.39650        1.2862845E-17
   51.55800        1.2889066E-17
   51.71950        1.2921885E-17
   51.88100        1.2949238E-17
   52.04250        1.2961328E-17
   52.20400        1.2954451E-17
   52.36550        1.2932430E-17
   52.52700        1.2905122E-17
   52.68850        1.2884582E-17
   52.85000        1.2880404E-17
   53.01150        1.2895997E-17
   53.17300        1.2927250E-17
   53.33450        1.2964071E-17
   53.49600        1.2994193E-17
   53.65750        1.3007796E-17
   53.81900        1.3001171E-17
   53.98050        1.2978056E-17
   54.14200        1.2948167E-17
   54.30350        1.2923494E-17
   54.46500        1.2913792E-17
   54.62650        1.2922984E-17
   54.78800        1.2947806E-17
   54.94950        1.2979171E-17
   55.11100        1.3005719E-17
   55.27250        1.3018160E-17
   55.43400        1.3012784E-17
   55.59550        1.2992813E-17
   55.75700        1.2967112E-17
   55.91850        1.2946785E-17
   56.08000        1.2940942E-17
   56.24150        1.2953257E-17
   56.40300        1.2980595E-17
   56.56450        1.3014229E-17
   56.72600        1.3043144E-17
   56.88750        1.3058208E-17
   57.04900        1.3055614E-17
   57.21050        1.3038313E-17
   57.37200        1.3014911E-17
   57.53350        1.2996429E-17
   57.69500        1.2992153E-17
   57.85650        1.3006135E-17
   58.01800        1.3035640E-17
   58.17950        1.3072130E-17
   58.34100        1.3104416E-17
   58.50250        1.3122801E-17
   58.66400        1.3122674E-17
   58.82550        1.3106204E-17
   58.98700        1.3081520E-17
   59.14850        1.3059652E-17
   59.31000        1.3050415E-17
   59.47150        1.3058741E-17
   59.63300        1.3082863E-17
   59.79450        1.3115022E-17
   59.95600        1.3144427E-17
   60.11750        1.3161366E-17
   60.27900        1.3160911E-17
   60.44050        1.3144809E-17
   60.60200        1.3120819E-17
   60.76350        1.3099749E-17
   60.92500        1.3091276E-17
   61.08650        1.3100157E-17
   61.24800        1.3124264E-17
   61.40950        1.3155238E-17
   61.57100        1.3181535E-17
   61.73250        1.3192748E-17
   61.89400        1.3183586E-17
   62.05550        1.3155978E-17
   62.21700        1.3118496E-17
   62.37850        1.3083281E-17
   62.54000        1.3061597E-17
   62.70150        1.3059706E-17
   62.86300        1.3076620E-17
   63.02450        1.3104594E-17
   63.18600        1.3132190E-17
   63.34750        1.3148746E-17
   63.50900        1.3148534E-17
   63.67050        1.3133021E-17
   63.83200        1.3110321E-17
   63.99350        1.3092048E-17
   64.15500        1.3088754E-17
   64.31650        1.3105720E-17
   64.47800        1.3140722E-17
   64.63950        1.3184687E-17
   64.80100        1.3225000E-17
   64.96250        1.3250225E-17
   65.12400        1.3254431E-17
   65.28550        1.3239457E-17
   65.44700        1.3214209E-17
   65.60850        1.3191249E-17
   65.77000        1.3181958E-17
   65.93150        1.3192150E-17
   66.09300        1.3219809E-17
   66.25450        1.3255852E-17
   66.41600        1.3287629E-17
   66.57750        1.3303818E-17
   66.73900        1.3298833E-17
   66.90050        1.3275028E-17
   67.06200        1.3241843E-17
   67.22350        1.3212210E-17
   67.38500        1.3197606E-17
   67.54650        1.3203664E-17
   67.70800        1.3228037E-17
   67.86950        1.3261360E-17
   68.03100        1.3290920E-17
   68.19250        1.3305623E-17
   68.35400        1.3300326E-17
   68.51550        1.3277863E-17
   68.67700        1.3247949E-17
   68.83850        1.3223423E-17
   69.00000        1.3215260E-17
   69.16150        1.3228288E-17
   69.32300        1.3259286E-17
   69.48450        1.3298187E-17
   69.64600        1.3331935E-17
   69.80750        1.3349497E-17
   69.96900        1.3346089E-17
   70.13050        1.3325017E-17
   70.29200        1.3296374E-17
   70.45350        1.3273162E-17
   70.61500        1.3266302E-17
   70.77650        1.3280469E-17
   70.93800        1.3312354E-17
   71.09950        1.3352004E-17
   71.26100        1.3386685E-17
   71.42250        1.3405789E-17
   71.58400        1.3404853E-17
   71.74550        1.3387155E-17
   71.90700        1.3362308E-17
   72.06850        1.3342398E-17
   72.23000        1.3337193E-17
   72.39150        1.3350297E-17
   72.55300        1.3377718E-17
   72.71450        1.3409403E-17
   72.87600        1.3433120E-17
   73.03750        1.3439203E-17
   73.19900        1.3424292E-17
   73.36050        1.3392678E-17
   73.52200        1.3354727E-17
   73.68350        1.3323022E-17
   73.84500        1.3307704E-17
   74.00650        1.3312791E-17
   74.16800        1.3334856E-17
   74.32950        1.3364523E-17
   74.49100        1.3390171E-17
   74.65250        1.3402400E-17
   74.81400        1.3397539E-17
   74.97550        1.3378901E-17
   75.13700        1.3355320E-17
   75.29850        1.3337588E-17
   75.46000        1.3334192E-17
   75.62150        1.3347979E-17
   75.78300        1.3375024E-17
   75.94450        1.3406109E-17
   76.10600        1.3430224E-17
   76.26750        1.3438751E-17
   76.42900        1.3428726E-17
   76.59050        1.3403972E-17
   76.75200        1.3373686E-17
   76.91350        1.3349030E-17
   77.07500        1.3339049E-17
   77.23650        1.3347419E-17
   77.39800        1.3371251E-17
   77.55950        1.3402359E-17
   77.72100        1.3430472E-17
   77.88250        1.3447158E-17
   78.04400        1.3448988E-17
   78.20550        1.3438748E-17
   78.36700        1.3424280E-17
   78.52850        1.3415423E-17
   78.69000        1.3420215E-17
   78.85150        1.3441795E-17
   79.01300        1.3477165E-17
   79.17450        1.3518243E-17
   79.33600        1.3554808E-17
   79.49750        1.3578217E-17
   79.65900        1.3584507E-17
   79.82050        1.3575731E-17
   79.98200        1.3559049E-17
   80.14350        1.3543935E-17
   80.30500        1.3538556E-17
   80.46650        1.3546676E-17
   80.62800        1.3566246E-17
   80.78950        1.3590201E-17
   80.95100        1.3609152E-17
   81.11250        1.3614981E-17
   81.27400        1.3603991E-17
   81.43550        1.3578419E-17
   81.59700        1.3545763E-17
   81.75850        1.3516144E-17
   81.92000        1.3498680E-17
   82.08150        1.3498224E-17
   82.24300        1.3513654E-17
   82.40450        1.3538372E-17
   82.56600        1.3562817E-17
   82.72750        1.3578063E-17
   82.88900        1.3579142E-17
   83.05050        1.3566858E-17
   83.21200        1.3547409E-17
   83.37350        1.3529941E-17
   83.53500        1.3522976E-17
   83.69650        1.3531066E-17
   83.85800        1.3552938E-17
   84.01950        1.3581875E-17
   84.18100        1.3608191E-17
   84.34250        1.3622898E-17
   84.50400        1.3621148E-17
   84.66550        1.3604175E-17
   84.82700        1.3578928E-17
   84.98850        1.3555548E-17
   85.15000        1.3543594E-17
   85.31150        1.3548453E-17
   85.47300        1.3569284E-17
   85.63450        1.3599294E-17
   85.79600        1.3628262E-17
   85.95750        1.3646353E-17
   86.11900        1.3647788E-17
   86.28050        1.3632988E-17
   86.44200        1.3608342E-17
   86.60350        1.3583723E-17
   86.76500        1.3568668E-17
   86.92650        1.3568708E-17
   87.08800        1.3583251E-17
   87.24950        1.3605850E-17
   87.41100        1.3626754E-17
   87.57250        1.3636780E-17
   87.73400        1.3630994E-17
   87.89550        1.3610793E-17
   88.05700        1.3583542E-17
   88.21850        1.3559892E-17
   88.38000        1.3549786E-17
   88.54150        1.3558687E-17
   88.70300        1.3585465E-17
   88.86450        1.3622780E-17
   89.02600        1.3659809E-17
   89.18750        1.3686296E-17
   89.34900        1.3696354E-17
   89.51050        1.3690569E-17
   89.67200        1.3675612E-17
   89.83350        1.3661509E-17
   89.99500        1.3657640E-17
   90.15650        1.3669017E-17
   90.31800        1.3694294E-17
   90.47950        1.3726256E-17
   90.64100        1.3754607E-17
   90.80250        1.3769965E-17
   90.96400        1.3767496E-17
   91.12550        1.3748815E-17
   91.28700        1.3721404E-17
   91.44850        1.3695788E-17
   91.61000        1.3681580E-17
   91.77150        1.3683904E-17
   91.93300        1.3701581E-17
   92.09450        1.3727735E-17
   92.25600        1.3752569E-17
   92.41750        1.3767221E-17
   92.57900        1.3767192E-17
   92.74050        1.3754061E-17
   92.90200        1.3734826E-17
   93.06350        1.3719165E-17
   93.22500        1.3715678E-17
   93.38650        1.3728556E-17
   93.54800        1.3755941E-17
   93.70950        1.3790568E-17
   93.87100        1.3822439E-17
   94.03250        1.3842473E-17
   94.19400        1.3845769E-17
   94.35550        1.3833253E-17
   94.51700        1.3811139E-17
   94.67850        1.3788445E-17
   94.84000        1.3773538E-17
   95.00150        1.3771038E-17
   95.16300        1.3780214E-17
   95.32450        1.3795467E-17
   95.48600        1.3808664E-17
   95.64750        1.3812407E-17
   95.80900        1.3802993E-17
   95.97050        1.3781949E-17
   96.13200        1.3755571E-17
   96.29350        1.3732665E-17
   96.45500        1.3721337E-17
   96.61650        1.3726037E-17
   96.77800        1.3745929E-17
   96.93950        1.3775194E-17
   97.10100        1.3805119E-17
   97.26250        1.3827197E-17
   97.42400        1.3836106E-17
   97.58550        1.3831479E-17
   97.74700        1.3817850E-17
   97.90850        1.3802825E-17
   98.07000        1.3794170E-17
   98.23150        1.3796910E-17
   98.39300        1.3811474E-17
   98.55450        1.3833591E-17
   98.71600        1.3855933E-17
   98.87750        1.3870916E-17
   99.03900        1.3873599E-17
   99.20050        1.3863618E-17
   99.36200        1.3845428E-17
   99.52350        1.3826736E-17
   99.68500        1.3815704E-17
   99.84650        1.3817912E-17
   100.0080        1.3834231E-17
   100.1695        1.3860381E-17
   100.3310        1.3888392E-17
   100.4925        1.3909444E-17
   100.6540        1.3917061E-17
   100.8155        1.3909500E-17
   100.9770        1.3890414E-17
   101.1385        1.3867518E-17
   101.3000        1.3849760E-17
   101.4615        1.3843978E-17
   101.6230        1.3852346E-17
   101.7845        1.3871540E-17
   101.9460        1.3894002E-17
   102.1075        1.3910834E-17
   102.2690        1.3915246E-17
   102.4305        1.3905267E-17
   102.5920        1.3884639E-17
   102.7535        1.3861526E-17
   102.9150        1.3845491E-17
   103.0765        1.3843848E-17
   103.2380        1.3858806E-17
   103.3995        1.3886506E-17
   103.5610        1.3918369E-17
   103.7225        1.3944277E-17
   103.8840        1.3956403E-17
   104.0455        1.3952227E-17
   104.2070        1.3935525E-17
   104.3685        1.3914958E-17
   104.5300        1.3900730E-17
   104.6915        1.3900596E-17
   104.8530        1.3916753E-17
   105.0145        1.3944849E-17
   105.1760        1.3975523E-17
   105.3375        1.3997926E-17
   105.4990        1.4003880E-17
   105.6605        1.3991069E-17
   105.8220        1.3964025E-17
   105.9835        1.3932478E-17
   106.1450        1.3907712E-17
   106.3065        1.3898292E-17
   106.4680        1.3906855E-17
   106.6295        1.3929179E-17
   106.7910        1.3955938E-17
   106.9525        1.3976446E-17
   107.1140        1.3982919E-17
   107.2755        1.3973617E-17
   107.4370        1.3953574E-17
   107.5985        1.3932653E-17
   107.7600        1.3921653E-17
   107.9215        1.3927984E-17
   108.0830        1.3952629E-17
   108.2445        1.3989563E-17
   108.4060        1.4027911E-17
   108.5675        1.4055999E-17
   108.7290        1.4065738E-17
   108.8905        1.4055660E-17
   109.0520        1.4031400E-17
   109.2135        1.4003488E-17
   109.3750        1.3983295E-17
   109.5365        1.3978704E-17
   109.6980        1.3991208E-17
   109.8595        1.4015507E-17
   110.0210        1.4041757E-17
   110.1825        1.4059538E-17
   110.3440        1.4061993E-17
   110.5055        1.4048528E-17
   110.6670        1.4025003E-17
   110.8285        1.4001420E-17
   110.9900        1.3987975E-17
   111.1515        1.3991070E-17
   111.3130        1.4010802E-17
   111.4745        1.4040903E-17
   111.6360        1.4071126E-17
   111.7975        1.4091156E-17
   111.9590        1.4094507E-17
   112.1205        1.4080957E-17
   112.2820        1.4056565E-17
   112.4435        1.4031337E-17
   112.6050        1.4015421E-17
   112.7665        1.4015321E-17
   112.9280        1.4031541E-17
   113.0895        1.4058522E-17
   113.2510        1.4086851E-17
   113.4125        1.4106882E-17
   113.5740        1.4112332E-17
   113.7355        1.4102559E-17
   113.8970        1.4082646E-17
   114.0585        1.4061321E-17
   114.2200        1.4047548E-17
   114.3815        1.4047095E-17
   114.5430        1.4060356E-17
   114.7045        1.4082260E-17
   114.8660        1.4104220E-17
   115.0275        1.4117420E-17
   115.1890        1.4116133E-17
   115.3505        1.4099881E-17
   115.5120        1.4073613E-17
   115.6735        1.4045894E-17
   115.8350        1.4025772E-17
   115.9965        1.4019494E-17
   116.1580        1.4028292E-17
   116.3195        1.4048032E-17
   116.4810        1.4070825E-17
   116.6425        1.4088017E-17
   116.8040        1.4093414E-17
   116.9655        1.4085590E-17
   117.1270        1.4068428E-17
   117.2885        1.4049692E-17
   117.4500        1.4038152E-17
   117.6115        1.4040335E-17
   117.7730        1.4058082E-17
   117.9345        1.4087791E-17
   118.0960        1.4121680E-17
   118.2575        1.4150570E-17
   118.4190        1.4167197E-17
   118.5805        1.4168818E-17
   118.7420        1.4158162E-17