  -27.90000       -3.8109352E-18
  -27.73850       -3.8164658E-18
  -27.57700       -3.8257678E-18
  -27.41550       -3.8360997E-18
  -27.25400       -3.8447471E-18
  -27.09250       -3.8500067E-18
  -26.93100       -3.8517665E-18
  -26.76950       -3.8514675E-18
  -26.60800       -3.8514654E-18
  -26.44650       -3.8540454E-18
  -26.28500       -3.8604821E-18
  -26.12350       -3.8705017E-18
  -25.96200       -3.8823606E-18
  -25.80050       -3.8935048E-18
  -25.63900       -3.9015512E-18
  -25.47750       -3.9052078E-18
  -25.31600       -3.9047760E-18
  -25.15450       -3.9020417E-18
  -24.99300       -3.8995941E-18
  -24.83150       -3.8998443E-18
  -24.67000       -3.9041159E-18
  -24.50850       -3.9121544E-18
  -24.34700       -3.9222423E-18
  -24.18550       -3.9318757E-18
  -24.02400       -3.9387251E-18
  -23.86250       -3.9415202E-18
  -23.70100       -3.9405230E-18
  -23.53950       -3.9374062E-18
  -23.37800       -3.9346012E-18
  -23.21650       -3.9343634E-18
  -23.05500       -3.9379203E-18
  -22.89350       -3.9450183E-18
  -22.73200       -3.9540391E-18
  -22.57050       -3.9626340E-18
  -22.40900       -3.9686194E-18
  -22.24750       -3.9707995E-18
  -22.08600       -3.9694028E-18
  -21.92450       -3.9659691E-18
  -21.76300       -3.9627460E-18
  -21.60150       -3.9618279E-18
  -21.44000       -3.9643615E-18
  -21.27850       -3.9701237E-18
  -21.11700       -3.9776245E-18
  -20.95550       -3.9846882E-18
  -20.79400       -3.9892853E-18
  -20.63250       -3.9903093E-18
  -20.47100       -3.9879953E-18
  -20.30950       -3.9838346E-18
  -20.14800       -3.9800192E-18
  -19.98650       -3.9786258E-18
  -19.82500       -3.9808522E-18
  -19.66350       -3.9865734E-18
  -19.50200       -3.9943969E-18
  -19.34050       -4.0021790E-18
  -19.17900       -4.0078108E-18
  -19.01750       -4.0099851E-18
  -18.85600       -4.0086566E-18
  -18.69450       -4.0050356E-18
  -18.53300       -4.0011198E-18
  -18.37150       -3.9989414E-18
  -18.21000       -3.9998095E-18
  -18.04850       -4.0038375E-18
  -17.88700       -4.0099139E-18
  -17.72550       -4.0161397E-18
  -17.56400       -4.0205593E-18
  -17.40250       -4.0219155E-18
  -17.24100       -4.0201395E-18
  -17.07950       -4.0164015E-18
  -16.91800       -4.0126875E-18
  -16.75650       -4.0110592E-18
  -16.59500       -4.0128786E-18
  -16.43350       -4.0182701E-18
  -16.27200       -4.0260436E-18
  -16.11050       -4.0341007E-18
  -15.94900       -4.0401813E-18
  -15.78750       -4.0426885E-18
  -15.62600       -4.0412686E-18
  -15.46450       -4.0369470E-18
  -15.30300       -4.0317486E-18
  -15.14150       -4.0279556E-18
  -14.98000       -4.0272641E-18
  -14.81850       -4.0301683E-18
  -14.65700       -4.0357935E-18
  -14.49550       -4.0422613E-18
  -14.33400       -4.0474340E-18
  -14.17250       -4.0497725E-18
  -14.01100       -4.0489660E-18
  -13.84950       -4.0460961E-18
  -13.68800       -4.0432547E-18
  -13.52650       -4.0427567E-18
  -13.36500       -4.0462375E-18
  -13.20350       -4.0539870E-18
  -13.04200       -4.0647796E-18
  -12.88050       -4.0762733E-18
  -12.71900       -4.0858396E-18
  -12.55750       -4.0915157E-18
  -12.39600       -4.0927114E-18
  -12.23450       -4.0904044E-18
  -12.07300       -4.0867346E-18
  -11.91150       -4.0841608E-18
  -11.75000       -4.0844925E-18
  -11.58850       -4.0881718E-18
  -11.42700       -4.0940940E-18
  -11.26550       -4.1000320E-18
  -11.10400       -4.1035078E-18
  -10.94250       -4.1027778E-18
  -10.78100       -4.0975475E-18
  -10.61950       -4.0891326E-18
  -10.45800       -4.0800039E-18
  -10.29650       -4.0728810E-18
  -10.13500       -4.0697257E-18
  -9.973500       -4.0710273E-18
  -9.812000       -4.0756504E-18
  -9.650500       -4.0813153E-18
  -9.489000       -4.0855154E-18
  -9.327500       -4.0865270E-18
  -9.166000       -4.0841021E-18
  -9.004500       -4.0795948E-18
  -8.843000       -4.0754399E-18
  -8.681500       -4.0742095E-18
  -8.520000       -4.0775955E-18
  -8.358500       -4.0857180E-18
  -8.197000       -4.0970343E-18
  -8.035500       -4.1088774E-18
  -7.874000       -4.1184252E-18
  -7.712500       -4.1237315E-18
  -7.551000       -4.1244139E-18
  -7.389500       -4.1217496E-18
  -7.228000       -4.1181394E-18
  -7.066500       -4.1161541E-18
  -6.905000       -4.1175330E-18
  -6.743500       -4.1225222E-18
  -6.582000       -4.1298072E-18
  -6.420500       -4.1370578E-18
  -6.259000       -4.1418633E-18
  -6.097500       -4.1427041E-18
  -5.936000       -4.1395658E-18
  -5.774500       -4.1339675E-18
  -5.613000       -4.1283956E-18
  -5.451500       -4.1253536E-18
  -5.290000       -4.1264116E-18
  -5.128500       -4.1316034E-18
  -4.967000       -4.1394169E-18
  -4.805500       -4.1473649E-18
  -4.644000       -4.1529264E-18
  -4.482500       -4.1544977E-18
  -4.321000       -4.1519843E-18
  -4.159500       -4.1468235E-18
  -3.998000       -4.1414336E-18
  -3.836500       -4.1382986E-18
  -3.675000       -4.1390463E-18
  -3.513500       -4.1438638E-18
  -3.352000       -4.1514603E-18
  -3.190500       -4.1595923E-18
  -3.029000       -4.1659326E-18
  -2.867500       -4.1689609E-18
  -2.706000       -4.1685238E-18
  -2.544500       -4.1658726E-18
  -2.383000       -4.1631562E-18
  -2.221500       -4.1625796E-18
  -2.060000       -4.1655405E-18
  -1.898500       -4.1720773E-18
  -1.737000       -4.1808330E-18
  -1.575500       -4.1895499E-18
  -1.414000       -4.1959014E-18
  -1.252500       -4.1983540E-18
  -1.091000       -4.1967348E-18
 -0.9295000       -4.1922891E-18
 -0.7680000       -4.1872176E-18
 -0.6065000       -4.1838626E-18
 -0.4450000       -4.1838465E-18
 -0.2835000       -4.1874840E-18
 -0.1220000       -4.1936849E-18
  3.9500002E-02   -4.2003772E-18
  0.2010000       -4.2052969E-18
  0.3625000       -4.2068425E-18
  0.5240000       -4.2046773E-18
  0.6855000       -4.1998603E-18
  0.8470000       -4.1944509E-18
   1.008500       -4.1907373E-18
   1.170000       -4.1903812E-18
   1.331500       -4.1937892E-18
   1.493000       -4.1999570E-18
   1.654500       -4.2068396E-18
   1.816000       -4.2121116E-18
   1.977500       -4.2140344E-18
   2.139000       -4.2121091E-18
   2.300500       -4.2072660E-18
   2.462000       -4.2015171E-18
   2.623500       -4.1971909E-18
   2.785000       -4.1960532E-18
   2.946500       -4.1986249E-18
   3.108000       -4.2039656E-18
   3.269500       -4.2100176E-18
   3.431000       -4.2143760E-18
   3.592500       -4.2152115E-18
   3.754000       -4.2119938E-18
   3.915500       -4.2057378E-18
   4.077000       -4.1986741E-18
   4.238500       -4.1934612E-18
   4.400000       -4.1922192E-18
   4.561500       -4.1957550E-18
   4.723000       -4.2032711E-18
   4.884500       -4.2126667E-18
   5.046000       -4.2213277E-18
   5.207500       -4.2271105E-18
   5.369000       -4.2291412E-18
   5.530500       -4.2281229E-18
   5.692000       -4.2260372E-18
   5.853500       -4.2253333E-18
   6.015000       -4.2279306E-18
   6.176500       -4.2344021E-18
   6.338000       -4.2436781E-18
   6.499500       -4.2533821E-18
   6.661000       -4.2606973E-18
   6.822500       -4.2634278E-18
   6.984000       -4.2608549E-18
   7.145500       -4.2540580E-18
   7.307000       -4.2455599E-18
   7.468500       -4.2384251E-18
   7.630000       -4.2351457E-18
   7.791500       -4.2367360E-18
   7.953000       -4.2423897E-18
   8.114500       -4.2498253E-18
   8.276000       -4.2562024E-18
   8.437500       -4.2592464E-18
   8.599000       -4.2581554E-18
   8.760500       -4.2539264E-18
   8.922000       -4.2489787E-18
   9.083500       -4.2462055E-18
   9.245000       -4.2478280E-18
   9.406500       -4.2544902E-18
   9.568000       -4.2649523E-18
   9.729500       -4.2765209E-18
   9.891000       -4.2860392E-18
   10.05250       -4.2910784E-18
   10.21400       -4.2908534E-18
   10.37550       -4.2865178E-18
   10.53700       -4.2807155E-18
   10.69850       -4.2765544E-18
   10.86000       -4.2764030E-18
   11.02150       -4.2809682E-18
   11.18300       -4.2890175E-18
   11.34450       -4.2978522E-18
   11.50600       -4.3043563E-18
   11.66750       -4.3062088E-18
   11.82900       -4.3027992E-18
   11.99050       -4.2954778E-18
   12.15200       -4.2870563E-18
   12.31350       -4.2807383E-18
   12.47500       -4.2789011E-18
   12.63650       -4.2821891E-18
   12.79800       -4.2892793E-18
   12.95950       -4.2974035E-18
   13.12100       -4.3034262E-18
   13.28250       -4.3050607E-18
   13.44400       -4.3017519E-18
   13.60550       -4.2948843E-18
   13.76700       -4.2872387E-18
   13.92850       -4.2819112E-18
   14.09000       -4.2811063E-18
   14.25150       -4.2852844E-18
   14.41300       -4.2929785E-18
   14.57450       -4.3013623E-18
   14.73600       -4.3073441E-18
   14.89750       -4.3087644E-18
   15.05900       -4.3052389E-18
   15.22050       -4.2983212E-18
   15.38200       -4.2909262E-18
   15.54350       -4.2862365E-18
   15.70500       -4.2865116E-18
   15.86650       -4.2922452E-18
   16.02800       -4.3019947E-18
   16.18950       -4.3129400E-18
   16.35100       -4.3219480E-18
   16.51250       -4.3267456E-18
   16.67400       -4.3267398E-18
   16.83550       -4.3231921E-18
   16.99700       -4.3186823E-18
   17.15850       -4.3160729E-18
   17.32000       -4.3173774E-18
   17.48150       -4.3229642E-18
   17.64300       -4.3313969E-18
   17.80450       -4.3399784E-18
   17.96600       -4.3457836E-18
   18.12750       -4.3467878E-18
   18.28900       -4.3426664E-18
   18.45050       -4.3349533E-18
   18.61200       -4.3265053E-18
   18.77350       -4.3204640E-18
   18.93500       -4.3191103E-18
   19.09650       -4.3230386E-18
   19.25800       -4.3309560E-18
   19.41950       -4.3401848E-18
   19.58100       -4.3476758E-18
   19.74250       -4.3511466E-18
   19.90400       -4.3499228E-18
   20.06550       -4.3451682E-18
   20.22700       -4.3394118E-18
   20.38850       -4.3355700E-18
   20.55000       -4.3358128E-18
   20.71150       -4.3407275E-18
   20.87300       -4.3490741E-18
   21.03450       -4.3582459E-18
   21.19600       -4.3652513E-18
   21.35750       -4.3678499E-18
   21.51900       -4.3654142E-18
   21.68050       -4.3591889E-18
   21.84200       -4.3518431E-18
   22.00350       -4.3464797E-18
   22.16500       -4.3454709E-18
   22.32650       -4.3495675E-18
   22.48800       -4.3576053E-18
   22.64950       -4.3669387E-18
   22.81100       -4.3744359E-18
   22.97250       -4.3776627E-18
   23.13400       -4.3758086E-18
   23.29550       -4.3700022E-18
   23.45700       -4.3628868E-18
   23.61850       -4.3576185E-18
   23.78000       -4.3566594E-18
   23.94150       -4.3608209E-18
   24.10300       -4.3689302E-18
   24.26450       -4.3782471E-18
   24.42600       -4.3854912E-18
   24.58750       -4.3880720E-18
   24.74900       -4.3850776E-18
   24.91050       -4.3776317E-18
   25.07200       -4.3684777E-18
   25.23350       -4.3609524E-18
   25.39500       -4.3577240E-18
   25.55650       -4.3597894E-18
   25.71800       -4.3661037E-18
   25.87950       -4.3739983E-18
   26.04100       -4.3802286E-18
   26.20250       -4.3822490E-18
   26.36400       -4.3792311E-18
   26.52550       -4.3724283E-18
   26.68700       -4.3647347E-18
   26.84850       -4.3596058E-18
   27.01000       -4.3597369E-18
   27.17150       -4.3660164E-18
   27.33300       -4.3771503E-18
   27.49450       -4.3901106E-18
   27.65600       -4.4012428E-18
   27.81750       -4.4076216E-18
   27.97900       -4.4081265E-18
   28.14050       -4.4038384E-18
   28.30200       -4.3975887E-18
   28.46350       -4.3928498E-18
   28.62500       -4.3923741E-18
   28.78650       -4.3971217E-18
   28.94800       -4.4058787E-18
   29.10950       -4.4157271E-18
   29.27100       -4.4231891E-18
   29.43250       -4.4255970E-18
   29.59400       -4.4221655E-18
   29.75550       -4.4143478E-18
   29.91700       -4.4053216E-18
   30.07850       -4.3988050E-18
   30.24000       -4.3976495E-18
   30.40150       -4.4027462E-18
   30.56300       -4.4126744E-18
   30.72450       -4.4242272E-18
   30.88600       -4.4336165E-18
   31.04750       -4.4378993E-18
   31.20900       -4.4360749E-18
   31.37050       -4.4294409E-18
   31.53200       -4.4210587E-18
   31.69350       -4.4145542E-18
   31.85500       -4.4126988E-18
   32.01650       -4.4163367E-18
   32.17800       -4.4240535E-18
   32.33950       -4.4327348E-18
   32.50100       -4.4387823E-18
   32.66250       -4.4395259E-18
   32.82400       -4.4342783E-18
   32.98550       -4.4246342E-18
   33.14700       -4.4138891E-18
   33.30850       -4.4058005E-18
   33.47000       -4.4031726E-18
   33.63150       -4.4068047E-18
   33.79300       -4.4152035E-18
   33.95450       -4.4251702E-18
   34.11600       -4.4330375E-18
   34.27750       -4.4360749E-18
   34.43900       -4.4335260E-18
   34.60050       -4.4268837E-18
   34.76200       -4.4192968E-18
   34.92350       -4.4143469E-18
   35.08500       -4.4146571E-18
   35.24650       -4.4208780E-18
   35.40800       -4.4314228E-18
   35.56950       -4.4430638E-18
   35.73100       -4.4521450E-18
   35.89250       -4.4559591E-18
   36.05400       -4.4537555E-18
   36.21550       -4.4469974E-18
   36.37700       -4.4387897E-18
   36.53850       -4.4326843E-18
   36.70000       -4.4313352E-18
   36.86150       -4.4355062E-18
   37.02300       -4.4438086E-18
   37.18450       -4.4532629E-18
   37.34600       -4.4604577E-18
   37.50750       -4.4628714E-18
   37.66900       -4.4598456E-18
   37.83050       -4.4528394E-18
   37.99200       -4.4448856E-18
   38.15350       -4.4394337E-18
   38.31500       -4.4390445E-18
   38.47650       -4.4444088E-18
   38.63800       -4.4540739E-18
   38.79950       -4.4649737E-18
   38.96100       -4.4735619E-18
   39.12250       -4.4771271E-18
   39.28400       -4.4747903E-18
   39.44550       -4.4678159E-18
   39.60700       -4.4591222E-18
   39.76850       -4.4521830E-18
   39.93000       -4.4497234E-18
   40.09150       -4.4527174E-18
   40.25300       -4.4600441E-18
   40.41450       -4.4689442E-18
   40.57600       -4.4760910E-18
   40.73750       -4.4788728E-18
   40.89900       -4.4764000E-18
   41.06050       -4.4698586E-18
   41.22200       -4.4620703E-18
   41.38350       -4.4564298E-18
   41.54500       -4.4556125E-18
   41.70650       -4.4605508E-18
   41.86800       -4.4700518E-18
   42.02950       -4.4812183E-18
   42.19100       -4.4905088E-18
   42.35250       -4.4950488E-18
   42.51400       -4.4936963E-18
   42.67550       -4.4874606E-18
   42.83700       -4.4791193E-18
   42.99850       -4.4721685E-18
   43.16000       -4.4695067E-18
   43.32150       -4.4723410E-18
   43.48300       -4.4797335E-18
   43.64450       -4.4889632E-18
   43.80600       -4.4965650E-18
   43.96750       -4.4996586E-18
   44.12900       -4.4970704E-18
   44.29050       -4.4898015E-18
   44.45200       -4.4806794E-18
   44.61350       -4.4733063E-18
   44.77500       -4.4706999E-18
   44.93650       -4.4741447E-18
   45.09800       -4.4826870E-18
   45.25950       -4.4934771E-18
   45.42100       -4.5028276E-18
   45.58250       -4.5075971E-18
   45.74400       -4.5063749E-18
   45.90550       -4.5000044E-18
   46.06700       -4.4912611E-18
   46.22850       -4.4837834E-18
   46.39000       -4.4806765E-18
   46.55150       -4.4833131E-18
   46.71300       -4.4907946E-18
   46.87450       -4.5002807E-18
   47.03600       -4.5080756E-18
   47.19750       -4.5110539E-18
   47.35900       -4.5078816E-18
   47.52050       -4.4995689E-18
   47.68200       -4.4891257E-18
   47.84350       -4.4804589E-18
   48.00500       -4.4769074E-18
   48.16650       -4.4799903E-18
   48.32800       -4.4888271E-18
   48.48950       -4.5004775E-18
   48.65100       -4.5110580E-18
   48.81250       -4.5172180E-18
   48.97400       -4.5174174E-18
   49.13550       -4.5124998E-18
   49.29700       -4.5053529E-18
   49.45850       -4.4997740E-18
   49.62000       -4.4989750E-18
   49.78150       -4.5043086E-18
   49.94300       -4.5147022E-18
   50.10450       -4.5270185E-18
   50.26600       -4.5372279E-18
   50.42750       -4.5419271E-18
   50.58900       -4.5396383E-18
   50.75050       -4.5313715E-18
   50.91200       -4.5202517E-18
   51.07350       -4.5103379E-18
   51.23500       -4.5050891E-18
   51.39650       -4.5060705E-18
   51.55800       -4.5123869E-18
   51.71950       -4.5210706E-18
   51.88100       -4.5282650E-18
   52.04250       -4.5307499E-18
   52.20400       -4.5272195E-18
   52.36550       -4.5188153E-18
   52.52700       -4.5087125E-18
   52.68850       -4.5009093E-18
   52.85000       -4.4986925E-18
   53.01150       -4.5033648E-18
   53.17300       -4.5137240E-18
   53.33450       -4.5264986E-18
   53.49600       -4.5375716E-18
   53.65750       -4.5435220E-18
   53.81900       -4.5429036E-18
   53.98050       -4.5367614E-18
   54.14200       -4.5282034E-18
   54.30350       -4.5211910E-18
   54.46500       -4.5190126E-18
   54.62650       -4.5230319E-18
   54.78800       -4.5321792E-18
   54.94950       -4.5433788E-18
   55.11100       -4.5527434E-18
   55.27250       -4.5570699E-18
   55.43400       -4.5550661E-18
   55.59550       -4.5478386E-18
   55.75700       -4.5384571E-18
   55.91850       -4.5307747E-18
   56.08000       -4.5279528E-18
   56.24150       -4.5312557E-18
   56.40300       -4.5395763E-18
   56.56450       -4.5498623E-18
   56.72600       -4.5582842E-18
   56.88750       -4.5616893E-18
   57.04900       -4.5587979E-18
   57.21050       -4.5506787E-18
   57.37200       -4.5403390E-18
   57.53350       -4.5315820E-18
   57.69500       -4.5275739E-18
   57.85650       -4.5296642E-18
   58.01800       -4.5368942E-18
   58.17950       -4.5463840E-18
   58.34100       -4.5544436E-18
   58.50250       -4.5579823E-18
   58.66400       -4.5556827E-18
   58.82550       -4.5485045E-18
   58.98700       -4.5393240E-18
   59.14850       -4.5318525E-18
   59.31000       -4.5292427E-18
   59.47150       -4.5329043E-18
   59.63300       -4.5419751E-18
   59.79450       -4.5536413E-18
   59.95600       -4.5641816E-18
   60.11750       -4.5703466E-18
   60.27900       -4.5705571E-18
   60.44050       -4.5654629E-18
   60.60200       -4.5576725E-18
   60.76350       -4.5507474E-18
   60.92500       -4.5478398E-18
   61.08650       -4.5504943E-18
   61.24800       -4.5580576E-18
   61.40950       -4.5679163E-18
   61.57100       -4.5764884E-18
   61.73250       -4.5805825E-18
   61.89400       -4.5786242E-18
   62.05550       -4.5712809E-18
   62.21700       -4.5612488E-18
   62.37850       -4.5522715E-18
   62.54000       -4.5477575E-18
   62.70150       -4.5495132E-18
   62.86300       -4.5570633E-18
   63.02450       -4.5678200E-18
   63.18600       -4.5780497E-18
   63.34750       -4.5842705E-18
   63.50900       -4.5845600E-18
   63.67050       -4.5792793E-18
   63.83200       -4.5709372E-18
   63.99350       -4.5632308E-18
   64.15500       -4.5596280E-18
   64.31650       -4.5620243E-18
   64.47800       -4.5699822E-18
   64.63950       -4.5808584E-18
   64.80100       -4.5907734E-18
   64.96250       -4.5960744E-18
   65.12400       -4.5947286E-18
   65.28550       -4.5871243E-18
   65.44700       -4.5759607E-18
   65.60850       -4.5652541E-18
   65.77000       -4.5588409E-18
   65.93150       -4.5589303E-18
   66.09300       -4.5652636E-18
   66.25450       -4.5752216E-18
   66.41600       -4.5848218E-18
   66.57750       -4.5902597E-18
   66.73900       -4.5893854E-18
   66.90050       -4.5825554E-18
   67.06200       -4.5725192E-18
   67.22350       -4.5633813E-18
   67.38500       -4.5590212E-18
   67.54650       -4.5615810E-18
   67.70800       -4.5706055E-18
   67.86950       -4.5831749E-18
   68.03100       -4.5949908E-18
   68.19250       -4.6020007E-18
   68.35400       -4.6019507E-18
   68.51550       -4.5952563E-18
   68.67700       -4.5848553E-18
   68.83850       -4.5750880E-18
   69.00000       -4.5700376E-18
   69.16150       -4.5719612E-18
   69.32300       -4.5804159E-18
   69.48450       -4.5924298E-18
   69.64600       -4.6036489E-18
   69.80750       -4.6100260E-18
   69.96900       -4.6093928E-18
   70.13050       -4.6023175E-18
   70.29200       -4.5919025E-18
   70.45350       -4.5826029E-18
   70.61500       -4.5785055E-18
   70.77650       -4.5817509E-18
   70.93800       -4.5916850E-18
   71.09950       -4.6050882E-18
   71.26100       -4.6173917E-18
   71.42250       -4.6244173E-18
   71.58400       -4.6239702E-18
   71.74550       -4.6166745E-18
   71.90700       -4.6057292E-18
   72.06850       -4.5956720E-18
   72.23000       -4.5906311E-18
   72.39150       -4.5927342E-18
   72.55300       -4.6012860E-18
   72.71450       -4.6130353E-18
   72.87600       -4.6234268E-18
   73.03750       -4.6283593E-18
   73.19900       -4.6257714E-18
   73.36050       -4.6164478E-18
   73.52200       -4.6037333E-18
   73.68350       -4.5922615E-18
   73.84500       -4.5861917E-18
   74.00650       -4.5876268E-18
   74.16800       -4.5958196E-18
   74.32950       -4.6074742E-18
   74.49100       -4.6180240E-18
   74.65250       -4.6233966E-18
   74.81400       -4.6215884E-18
   74.97550       -4.6134386E-18
   75.13700       -4.6023117E-18
   75.29850       -4.5928021E-18
   75.46000       -4.5889664E-18
   75.62150       -4.5927446E-18
   75.78300       -4.6031948E-18
   75.94450       -4.6168263E-18
   76.10600       -4.6289035E-18
   76.26750       -4.6352331E-18
   76.42900       -4.6337508E-18
   76.59050       -4.6252983E-18
   76.75200       -4.6133033E-18
   76.91350       -4.6024718E-18
   77.07500       -4.5970062E-18
   77.23650       -4.5990130E-18
   77.39800       -4.6077190E-18
   77.55950       -4.6197897E-18
   77.72100       -4.6306228E-18
   77.88250       -4.6361298E-18
   78.04400       -4.6343216E-18
   78.20550       -4.6260816E-18
   78.36700       -4.6148386E-18
   78.52850       -4.6052561E-18
   78.69000       -4.6014374E-18
   78.85150       -4.6053372E-18
   79.01300       -4.6159809E-18
   79.17450       -4.6298031E-18
   79.33600       -4.6419817E-18
   79.49750       -4.6482542E-18
   79.65900       -4.6465386E-18
   79.82050       -4.6377262E-18
   79.98200       -4.6253487E-18
   80.14350       -4.6142455E-18
   80.30500       -4.6087203E-18
   80.46650       -4.6109095E-18
   80.62800       -4.6199675E-18
   80.78950       -4.6323967E-18
   80.95100       -4.6433879E-18
   81.11250       -4.6486785E-18
   81.27400       -4.6462094E-18
   81.43550       -4.6369450E-18
   81.59700       -4.6245418E-18
   81.75850       -4.6139787E-18
   81.92000       -4.6096724E-18
   82.08150       -4.6137885E-18
   82.24300       -4.6253975E-18
   82.40450       -4.6408141E-18
   82.56600       -4.6549845E-18
   82.72750       -4.6634048E-18
   82.88900       -4.6638387E-18
   83.05050       -4.6571658E-18
   83.21200       -4.6470357E-18
   83.37350       -4.6384463E-18
   83.53500       -4.6357906E-18
   83.69650       -4.6411160E-18
   83.85800       -4.6532801E-18
   84.01950       -4.6683290E-18
   84.18100       -4.6809725E-18
   84.34250       -4.6865948E-18
   84.50400       -4.6830284E-18
   84.66550       -4.6714128E-18
   84.82700       -4.6557898E-18
   84.98850       -4.6415867E-18
   85.15000       -4.6335585E-18
   85.31150       -4.6339816E-18
   85.47300       -4.6417922E-18
   85.63450       -4.6530113E-18
   85.79600       -4.6623026E-18
   85.95750       -4.6650608E-18
   86.11900       -4.6592309E-18
   86.28050       -4.6461503E-18
   86.44200       -4.6300748E-18
   86.60350       -4.6165703E-18
   86.76500       -4.6103743E-18
   86.92650       -4.6135589E-18
   87.08800       -4.6247118E-18
   87.24950       -4.6394559E-18
   87.41100       -4.6521196E-18
   87.57250       -4.6579248E-18
   87.73400       -4.6548402E-18
   87.89550       -4.6443855E-18
   88.05700       -4.6310670E-18
   88.21850       -4.6206483E-18
   88.38000       -4.6179235E-18
   88.54150       -4.6248495E-18
   88.70300       -4.6397632E-18
   88.86450       -4.6579942E-18
   89.02600       -4.6736433E-18
   89.18750       -4.6818356E-18
   89.34900       -4.6805903E-18
   89.51050       -4.6715621E-18
   89.67200       -4.6593760E-18
   89.83350       -4.6498076E-18
   89.99500       -4.6475060E-18
   90.15650       -4.6541520E-18
   90.31800       -4.6677728E-18
   90.47950       -4.6834788E-18
   90.64100       -4.6953530E-18
   90.80250       -4.6987569E-18
   90.96400       -4.6921597E-18
   91.12550       -4.6777792E-18
   91.28700       -4.6607794E-18
   91.44850       -4.6473232E-18
   91.61000       -4.6422398E-18
   91.77150       -4.6471896E-18
   91.93300       -4.6600572E-18
   92.09450       -4.6757869E-18
   92.25600       -4.6883542E-18
   92.41750       -4.6931010E-18
   92.57900       -4.6885346E-18
   92.74050       -4.6768895E-18
   92.90200       -4.6632402E-18
   93.06350       -4.6535039E-18
   93.22500       -4.6521134E-18
   93.38650       -4.6602574E-18
   93.54800       -4.6753820E-18
   93.70950       -4.6921440E-18
   93.87100       -4.7044512E-18
   94.03250       -4.7078037E-18
   94.19400       -4.7010304E-18
   94.35550       -4.6867421E-18
   94.51700       -4.6703354E-18
   94.67850       -4.6579231E-18
   94.84000       -4.6539923E-18
   95.00150       -4.6596995E-18
   95.16300       -4.6724529E-18
   95.32450       -4.6869513E-18
   95.48600       -4.6972704E-18
   95.64750       -4.6991837E-18
   95.80900       -4.6918263E-18
   95.97050       -4.6780530E-18
   96.13200       -4.6633511E-18
   96.29350       -4.6537293E-18
   96.45500       -4.6533972E-18
   96.61650       -4.6631310E-18
   96.77800       -4.6799559E-18
   96.93950       -4.6982626E-18
   97.10100       -4.7119343E-18
   97.26250       -4.7166533E-18
   97.42400       -4.7115103E-18
   97.58550       -4.6992929E-18
   97.74700       -4.6853549E-18
   97.90850       -4.6755073E-18
   98.07000       -4.6737450E-18
   98.23150       -4.6806954E-18
   98.39300       -4.6933860E-18
   98.55450       -4.7064104E-18
   98.71600       -4.7140539E-18
   98.87750       -4.7125439E-18
   99.03900       -4.7015643E-18
   99.20050       -4.6844400E-18
   99.36200       -4.6669203E-18
   99.52350       -4.6550342E-18
   99.68500       -4.6528256E-18
   99.84650       -4.6608480E-18
   100.0080       -4.6759858E-18
   100.1695       -4.6926696E-18
   100.3310       -4.7050116E-18
   100.4925       -4.7090383E-18
   100.6540       -4.7041757E-18
   100.8155       -4.6934000E-18
   100.9770       -4.6820280E-18
   101.1385       -4.6756082E-18
   101.3000       -4.6777337E-18
   101.4615       -4.6886177E-18
   101.6230       -4.7049843E-18
   101.7845       -4.7213058E-18
   101.9460       -4.7319173E-18
   102.1075       -4.7331837E-18
   102.2690       -4.7249007E-18
   102.4305       -4.7103821E-18
   102.5920       -4.6952062E-18
   102.7535       -4.6851067E-18
   102.9150       -4.6838019E-18
   103.0765       -4.6915997E-18
   103.2380       -4.7053052E-18
   103.3995       -4.7194595E-18
   103.5610       -4.7284394E-18
   103.7225       -4.7286115E-18
   103.8840       -4.7197226E-18
   104.0455       -4.7049992E-18
   104.2070       -4.6899093E-18
   104.3685       -4.6800754E-18
   104.5300       -4.6791242E-18
   104.6915       -4.6872984E-18
   104.8530       -4.7013658E-18
   105.0145       -4.7158563E-18
   105.1760       -4.7251625E-18
   105.3375       -4.7256965E-18
   105.4990       -4.7172721E-18
   105.6605       -4.7031877E-18
   105.8220       -4.6889688E-18
   105.9835       -4.6802512E-18
   106.1450       -4.6806098E-18
   106.3065       -4.6901802E-18
   106.4680       -4.7055894E-18
   106.6295       -4.7212442E-18
   106.7910       -4.7314723E-18
   106.9525       -4.7327064E-18
   107.1140       -4.7248631E-18
   107.2755       -4.7113850E-18
   107.4370       -4.6979293E-18
   107.5985       -4.6901984E-18
   107.7600       -4.6917444E-18
   107.9215       -4.7025971E-18
   108.0830       -4.7192366E-18
   108.2445       -4.7359333E-18
   108.4060       -4.7469327E-18
   108.5675       -4.7486594E-18
   108.7290       -4.7410758E-18
   108.8905       -4.7276838E-18
   109.0520       -4.7141639E-18
   109.2135       -4.7061705E-18
   109.3750       -4.7071408E-18
   109.5365       -4.7169561E-18
   109.6980       -4.7319822E-18
   109.8595       -4.7464749E-18
   110.0210       -4.7548149E-18
   110.1825       -4.7537019E-18
   110.3440       -4.7434627E-18
   110.5055       -4.7279530E-18
   110.6670       -4.7130952E-18
   110.8285       -4.7046009E-18
   110.9900       -4.7057639E-18
   111.1515       -4.7161752E-18
   111.3130       -4.7318623E-18
   111.4745       -4.7468032E-18
   111.6360       -4.7552339E-18
   111.7975       -4.7538603E-18
   111.9590       -4.7431111E-18
   112.1205       -4.7269596E-18
   112.2820       -4.7113763E-18
   112.4435       -4.7020234E-18
   112.6050       -4.7020763E-18
   112.7665       -4.7110235E-18
   112.9280       -4.7249061E-18
   113.0895       -4.7378904E-18
   113.2510       -4.7445703E-18
   113.4125       -4.7420858E-18
   113.5740       -4.7312502E-18
   113.7355       -4.7162302E-18
   113.8970       -4.7029234E-18
   114.0585       -4.6966567E-18
   114.2200       -4.7001064E-18
   114.3815       -4.7122428E-18
   114.5430       -4.7287066E-18
   114.7045       -4.7434825E-18
   114.8660       -4.7512034E-18
   115.0275       -4.7492103E-18
   115.1890       -4.7385612E-18
   115.3505       -4.7236066E-18
   115.5120       -4.7103051E-18
   115.6735       -4.7039284E-18
   115.8350       -4.7070473E-18
   115.9965       -4.7185740E-18
   116.1580       -4.7342206E-18
   116.3195       -4.7481933E-18
   116.4810       -4.7554543E-18
   116.6425       -4.7536709E-18
   116.8040       -4.7441008E-18
   116.9655       -4.7310719E-18
   117.1270       -4.7202756E-18
   117.2885       -4.7165342E-18
   117.4500       -4.7219274E-18
   117.6115       -4.7349882E-18
   117.7730       -4.7512787E-18
   117.9345       -4.7651162E-18
   118.0960       -4.7717630E-18
   118.2575       -4.7692376E-18
   118.4190       -4.7590439E-18
   118.5805       -4.7455455E-18
   118.7420       -4.7342541E-18