  -27.90000        4.6472694E-18
  -27.73850        4.6472835E-18
  -27.57700        4.6473000E-18
  -27.41550        4.6472934E-18
  -27.25400        4.6472289E-18
  -27.09250        4.6470750E-18
  -26.93100        4.6468186E-18
  -26.76950        4.6464828E-18
  -26.60800        4.6461279E-18
  -26.44650        4.6458363E-18
  -26.28500        4.6456800E-18
  -26.12350        4.6456837E-18
  -25.96200        4.6458066E-18
  -25.80050        4.6459521E-18
  -25.63900        4.6460071E-18
  -25.47750        4.6458926E-18
  -25.31600        4.6456060E-18
  -25.15450        4.6452259E-18
  -24.99300        4.6448797E-18
  -24.83150        4.6446849E-18
  -24.67000        4.6446928E-18
  -24.50850        4.6448656E-18
  -24.34700        4.6450939E-18
  -24.18550        4.6452499E-18
  -24.02400        4.6452453E-18
  -23.86250        4.6450749E-18
  -23.70100        4.6448119E-18
  -23.53950        4.6445703E-18
  -23.37800        4.6444467E-18
  -23.21650        4.6444777E-18
  -23.05500        4.6446266E-18
  -22.89350        4.6448090E-18
  -22.73200        4.6449368E-18
  -22.57050        4.6449591E-18
  -22.40900        4.6448818E-18
  -22.24750        4.6447560E-18
  -22.08600        4.6446444E-18
  -21.92450        4.6445927E-18
  -21.76300        4.6446088E-18
  -21.60150        4.6446700E-18
  -21.44000        4.6447362E-18
  -21.27850        4.6447771E-18
  -21.11700        4.6447788E-18
  -20.95550        4.6447478E-18
  -20.79400        4.6446985E-18
  -20.63250        4.6446427E-18
  -20.47100        4.6445889E-18
  -20.30950        4.6445439E-18
  -20.14800        4.6445149E-18
  -19.98650        4.6445104E-18
  -19.82500        4.6445302E-18
  -19.66350        4.6445588E-18
  -19.50200        4.6445641E-18
  -19.34050        4.6445087E-18
  -19.17900        4.6443664E-18
  -19.01750        4.6441419E-18
  -18.85600        4.6438767E-18
  -18.69450        4.6436319E-18
  -18.53300        4.6434673E-18
  -18.37150        4.6434065E-18
  -18.21000        4.6434297E-18
  -18.04850        4.6434834E-18
  -17.88700        4.6435149E-18
  -17.72550        4.6435037E-18
  -17.56400        4.6434801E-18
  -17.40250        4.6435120E-18
  -17.24100        4.6436699E-18
  -17.07950        4.6439839E-18
  -16.91800        4.6444169E-18
  -16.75650        4.6448735E-18
  -16.59500        4.6452321E-18
  -16.43350        4.6454008E-18
  -16.27200        4.6453516E-18
  -16.11050        4.6451266E-18
  -15.94900        4.6448144E-18
  -15.78750        4.6444975E-18
  -15.62600        4.6442113E-18
  -15.46450        4.6439289E-18
  -15.30300        4.6435790E-18
  -15.14150        4.6430930E-18
  -14.98000        4.6424482E-18
  -14.81850        4.6416930E-18
  -14.65700        4.6409374E-18
  -14.49550        4.6403145E-18
  -14.33400        4.6399340E-18
  -14.17250        4.6398488E-18
  -14.01100        4.6400403E-18
  -13.84950        4.6404344E-18
  -13.68800        4.6409345E-18
  -13.52650        4.6414527E-18
  -13.36500        4.6419329E-18
  -13.20350        4.6423568E-18
  -13.04200        4.6427468E-18
  -12.88050        4.6431559E-18
  -12.71900        4.6436530E-18
  -12.55750        4.6443085E-18
  -12.39600        4.6451721E-18
  -12.23450        4.6462491E-18
  -12.07300        4.6474878E-18
  -11.91150        4.6487811E-18
  -11.75000        4.6499933E-18
  -11.58850        4.6510004E-18
  -11.42700        4.6517275E-18
  -11.26550        4.6521692E-18
  -11.10400        4.6523748E-18
  -10.94250        4.6524091E-18
  -10.78100        4.6522999E-18
  -10.61950        4.6520071E-18
  -10.45800        4.6514285E-18
  -10.29650        4.6504429E-18
  -10.13500        4.6489780E-18
  -9.973500        4.6470630E-18
  -9.812000        4.6448441E-18
  -9.650500        4.6425475E-18
  -9.489000        4.6404051E-18
  -9.327500        4.6385758E-18
  -9.166000        4.6370947E-18
  -9.004500        4.6358771E-18
  -8.843000        4.6347662E-18
  -8.681500        4.6336102E-18
  -8.520000        4.6323339E-18
  -8.358500        4.6309661E-18
  -8.197000        4.6296302E-18
  -8.035500        4.6284978E-18
  -7.874000        4.6277318E-18
  -7.712500        4.6274436E-18
  -7.551000        4.6276727E-18
  -7.389500        4.6283952E-18
  -7.228000        4.6295405E-18
  -7.066500        4.6310182E-18
  -6.905000        4.6327350E-18
  -6.743500        4.6346131E-18
  -6.582000        4.6366017E-18
  -6.420500        4.6386816E-18
  -6.259000        4.6408637E-18
  -6.097500        4.6431707E-18
  -5.936000        4.6456035E-18
  -5.774500        4.6481065E-18
  -5.613000        4.6505525E-18
  -5.451500        4.6527487E-18
  -5.290000        4.6544907E-18
  -5.128500        4.6556264E-18
  -4.967000        4.6561240E-18
  -4.805500        4.6560930E-18
  -4.644000        4.6557542E-18
  -4.482500        4.6553588E-18
  -4.321000        4.6550896E-18
  -4.159500        4.6549862E-18
  -3.998000        4.6549308E-18
  -3.836500        4.6547016E-18
  -3.675000        4.6540734E-18
  -3.513500        4.6529253E-18
  -3.352000        4.6513007E-18
  -3.190500        4.6494044E-18
  -3.029000        4.6475242E-18
  -2.867500        4.6459207E-18
  -2.706000        4.6447320E-18
  -2.544500        4.6439214E-18
  -2.383000        4.6433014E-18
  -2.221500        4.6426178E-18
  -2.060000        4.6416508E-18
  -1.898500        4.6403079E-18
  -1.737000        4.6386622E-18
  -1.575500        4.6369326E-18
  -1.414000        4.6354101E-18
  -1.252500        4.6343588E-18
  -1.091000        4.6339241E-18
 -0.9295000        4.6340792E-18
 -0.7680000        4.6346297E-18
 -0.6065000        4.6352728E-18
 -0.4450000        4.6356963E-18
 -0.2835000        4.6356860E-18
 -0.1220000        4.6352046E-18
  3.9500002E-02    4.6344072E-18
  0.2010000        4.6335854E-18
  0.3625000        4.6330589E-18
  0.5240000        4.6330423E-18
  0.6855000        4.6335531E-18
  0.8470000        4.6343935E-18
   1.008500        4.6352253E-18
   1.170000        4.6357129E-18
   1.331500        4.6356748E-18
   1.493000        4.6351777E-18
   1.654500        4.6345337E-18
   1.816000        4.6341805E-18
   1.977500        4.6345027E-18
   2.139000        4.6356624E-18
   2.300500        4.6375141E-18
   2.462000        4.6396424E-18
   2.623500        4.6415143E-18
   2.785000        4.6426765E-18
   2.946500        4.6429271E-18
   3.108000        4.6423812E-18
   3.269500        4.6414101E-18
   3.431000        4.6404857E-18
   3.592500        4.6399944E-18
   3.754000        4.6400928E-18
   3.915500        4.6406669E-18
   4.077000        4.6413981E-18
   4.238500        4.6419101E-18
   4.400000        4.6419271E-18
   4.561500        4.6413807E-18
   4.723000        4.6404344E-18
   4.884500        4.6394182E-18
   5.046000        4.6387023E-18
   5.207500        4.6385600E-18
   5.369000        4.6390659E-18
   5.530500        4.6400750E-18
   5.692000        4.6412691E-18
   5.853500        4.6422741E-18
   6.015000        4.6427956E-18
   6.176500        4.6427352E-18
   6.338000        4.6422381E-18
   6.499500        4.6416566E-18
   6.661000        4.6414353E-18
   6.822500        4.6419523E-18
   6.984000        4.6433738E-18
   7.145500        4.6455762E-18
   7.307000        4.6481739E-18
   7.468500        4.6506394E-18
   7.630000        4.6524827E-18
   7.791500        4.6534187E-18
   7.953000        4.6534518E-18
   8.114500        4.6528525E-18
   8.276000        4.6520241E-18
   8.437500        4.6513267E-18
   8.599000        4.6509198E-18
   8.760500        4.6507010E-18
   8.922000        4.6503565E-18
   9.083500        4.6495069E-18
   9.245000        4.6478807E-18
   9.406500        4.6454476E-18
   9.568000        4.6424511E-18
   9.729500        4.6393372E-18
   9.891000        4.6366009E-18
   10.05250        4.6346206E-18
   10.21400        4.6335357E-18
   10.37550        4.6332165E-18
   10.53700        4.6333223E-18
   10.69850        4.6334377E-18
   10.86000        4.6332144E-18
   11.02150        4.6324964E-18
   11.18300        4.6313623E-18
   11.34450        4.6301009E-18
   11.50600        4.6291099E-18
   11.66750        4.6287662E-18
   11.82900        4.6292985E-18
   11.99050        4.6307089E-18
   12.15200        4.6327661E-18
   12.31350        4.6350822E-18
   12.47500        4.6372411E-18
   12.63650        4.6389459E-18
   12.79800        4.6401189E-18
   12.95950        4.6409245E-18
   13.12100        4.6416884E-18
   13.28250        4.6427518E-18
   13.44400        4.6443044E-18
   13.60550        4.6462694E-18
   13.76700        4.6482984E-18
   13.92850        4.6498763E-18
   14.09000        4.6505124E-18
   14.25150        4.6499396E-18
   14.41300        4.6482364E-18
   14.57450        4.6458190E-18
   14.73600        4.6433105E-18
   14.89750        4.6413228E-18
   15.05900        4.6402442E-18
   15.22050        4.6401089E-18
   15.38200        4.6406073E-18
   15.54350        4.6412215E-18
   15.70500        4.6414333E-18
   15.86650        4.6409245E-18
   16.02800        4.6396908E-18
   16.18950        4.6380315E-18
   16.35100        4.6364234E-18
   16.51250        4.6353328E-18
   16.67400        4.6350387E-18
   16.83550        4.6355293E-18
   16.99700        4.6365128E-18
   17.15850        4.6375323E-18
   17.32000        4.6381407E-18
   17.48150        4.6380749E-18
   17.64300        4.6373668E-18
   17.80450        4.6363424E-18
   17.96600        4.6355173E-18
   18.12750        4.6354114E-18
   18.28900        4.6363544E-18
   18.45050        4.6383437E-18
   18.61200        4.6410234E-18
   18.77350        4.6437858E-18
   18.93500        4.6459774E-18
   19.09650        4.6471313E-18
   19.25800        4.6471400E-18
   19.41950        4.6462934E-18
   19.58100        4.6451671E-18
   19.74250        4.6443946E-18
   19.90400        4.6444123E-18
   20.06550        4.6452846E-18
   20.22700        4.6466743E-18
   20.38850        4.6479829E-18
   20.55000        4.6485991E-18
   20.71150        4.6481628E-18
   20.87300        4.6467181E-18
   21.03450        4.6447097E-18
   21.19600        4.6428080E-18
   21.35750        4.6416409E-18
   21.51900        4.6415424E-18
   21.68050        4.6424122E-18
   21.84200        4.6437564E-18
   22.00350        4.6448735E-18
   22.16500        4.6451287E-18
   22.32650        4.6441902E-18
   22.48800        4.6421562E-18
   22.64950        4.6395134E-18
   22.81100        4.6369561E-18
   22.97250        4.6351351E-18
   23.13400        4.6344316E-18
   23.29550        4.6348311E-18
   23.45700        4.6359445E-18
   23.61850        4.6371580E-18
   23.78000        4.6378602E-18
   23.94150        4.6376626E-18
   24.10300        4.6365310E-18
   24.26450        4.6347881E-18
   24.42600        4.6329869E-18
   24.58750        4.6316915E-18
   24.74900        4.6312614E-18
   24.91050        4.6317069E-18
   25.07200        4.6326833E-18
   25.23350        4.6336300E-18
   25.39500        4.6340010E-18
   25.55650        4.6335022E-18
   25.71800        4.6322396E-18
   25.87950        4.6307089E-18
   26.04100        4.6296253E-18
   26.20250        4.6296583E-18
   26.36400        4.6311671E-18
   26.52550        4.6340503E-18
   26.68700        4.6377705E-18
   26.84850        4.6415387E-18
   27.01000        4.6445997E-18
   27.17150        4.6464906E-18
   27.33300        4.6471879E-18
   27.49450        4.6470709E-18
   27.65600        4.6467413E-18
   27.81750        4.6467653E-18
   27.97900        4.6474469E-18
   28.14050        4.6487228E-18
   28.30200        4.6502034E-18
   28.46350        4.6513425E-18
   28.62500        4.6516663E-18
   28.78650        4.6509562E-18
   28.94800        4.6493407E-18
   29.10950        4.6472442E-18
   29.27100        4.6452395E-18
   29.43250        4.6438420E-18
   29.59400        4.6433296E-18
   29.75550        4.6436468E-18
   29.91700        4.6444252E-18
   30.07850        4.6451080E-18
   30.24000        4.6451461E-18
   30.40150        4.6441931E-18
   30.56300        4.6422418E-18
   30.72450        4.6396395E-18
   30.88600        4.6369834E-18
   31.04750        4.6349291E-18
   31.20900        4.6339622E-18
   31.37050        4.6342322E-18
   31.53200        4.6355065E-18
   31.69350        4.6372548E-18
   31.85500        4.6388558E-18
   32.01650        4.6398302E-18
   32.17800        4.6400242E-18
   32.33950        4.6396552E-18
   32.50100        4.6392106E-18
   32.66250        4.6392375E-18
   32.82400        4.6401015E-18
   32.98550        4.6418162E-18
   33.14700        4.6440145E-18
   33.30850        4.6460721E-18
   33.47000        4.6473393E-18
   33.63150        4.6473865E-18
   33.79300        4.6461713E-18
   33.95450        4.6440596E-18
   34.11600        4.6416930E-18
   34.27750        4.6397574E-18
   34.43900        4.6387292E-18
   34.60050        4.6387106E-18
   34.76200        4.6393967E-18
   34.92350        4.6401946E-18
   35.08500        4.6404460E-18
   35.24650        4.6396759E-18
   35.40800        4.6377738E-18
   35.56950        4.6350449E-18
   35.73100        4.6321076E-18
   35.89250        4.6296782E-18
   36.05400        4.6283216E-18
   36.21550        4.6282505E-18
   36.37700        4.6292530E-18
   36.53850        4.6307788E-18
   36.70000        4.6321515E-18
   36.86150        4.6328388E-18
   37.02300        4.6326660E-18
   37.18450        4.6318930E-18
   37.34600        4.6311196E-18
   37.50750        4.6310451E-18
   37.66900        4.6321779E-18
   37.83050        4.6346028E-18
   37.99200        4.6379119E-18
   38.15350        4.6413253E-18
   38.31500        4.6439710E-18
   38.47650        4.6452114E-18
   38.63800        4.6448888E-18
   38.79950        4.6433916E-18
   38.96100        4.6415102E-18
   39.12250        4.6401338E-18
   39.28400        4.6399183E-18
   39.44550        4.6410474E-18
   39.60700        4.6431798E-18
   39.76850        4.6456109E-18
   39.93000        4.6475697E-18
   40.09150        4.6485338E-18
   40.25300        4.6484345E-18
   40.41450        4.6476723E-18
   40.57600        4.6469344E-18
   40.73750        4.6469034E-18
   40.89900        4.6479585E-18
   41.06050        4.6500037E-18
   41.22200        4.6524844E-18
   41.38350        4.6545784E-18
   41.54500        4.6554941E-18
   41.70650        4.6547637E-18
   41.86800        4.6524120E-18
   42.02950        4.6489490E-18
   42.19100        4.6451887E-18
   42.35250        4.6419631E-18
   42.51400        4.6398376E-18
   42.67550        4.6389372E-18
   42.83700        4.6389306E-18
   42.99850        4.6391908E-18
   43.16000        4.6390535E-18
   43.32150        4.6380927E-18
   43.48300        4.6362969E-18
   43.64450        4.6340809E-18
   43.80600        4.6321312E-18
   43.96750        4.6311444E-18
   44.12900        4.6315509E-18
   44.29050        4.6333422E-18
   44.45200        4.6360595E-18
   44.61350        4.6389616E-18
   44.77500        4.6413009E-18
   44.93650        4.6426008E-18
   45.09800        4.6428337E-18
   45.25950        4.6424168E-18
   45.42100        4.6420309E-18
   45.58250        4.6423398E-18
   45.74400        4.6437163E-18
   45.90550        4.6460837E-18
   46.06700        4.6489403E-18
   46.22850        4.6515480E-18
   46.39000        4.6532102E-18
   46.55150        4.6535304E-18
   46.71300        4.6525473E-18
   46.87450        4.6507068E-18
   47.03600        4.6486839E-18
   47.19750        4.6471243E-18
   47.35900        4.6464203E-18
   47.52050        4.6465928E-18
   47.68200        4.6473104E-18
   47.84350        4.6480399E-18
   48.00500        4.6482604E-18
   48.16650        4.6476586E-18
   48.32800        4.6462445E-18
   48.48950        4.6443408E-18
   48.65100        4.6424631E-18
   48.81250        4.6411346E-18
   48.97400        4.6406913E-18
   49.13550        4.6411640E-18
   49.29700        4.6422546E-18
   49.45850        4.6434388E-18
   49.62000        4.6441476E-18
   49.78150        4.6439810E-18
   49.94300        4.6428601E-18
   50.10450        4.6410776E-18
   50.26600        4.6392036E-18
   50.42750        4.6378871E-18
   50.58900        4.6376183E-18
   50.75050        4.6385456E-18
   50.91200        4.6404071E-18
   51.07350        4.6426248E-18
   51.23500        4.6445133E-18
   51.39650        4.6455348E-18
   51.55800        4.6454931E-18
   51.71950        4.6445964E-18
   51.88100        4.6433577E-18
   52.04250        4.6423812E-18
   52.20400        4.6421149E-18
   52.36550        4.6426699E-18
   52.52700        4.6437800E-18
   52.68850        4.6449049E-18
   52.85000        4.6454467E-18
   53.01150        4.6449835E-18
   53.17300        4.6434454E-18
   53.33450        4.6411561E-18
   53.49600        4.6387309E-18
   53.65750        4.6368664E-18
   53.81900        4.6361025E-18
   53.98050        4.6366352E-18
   54.14200        4.6382503E-18
   54.30350        4.6403951E-18
   54.46500        4.6423762E-18
   54.62650        4.6436029E-18
   54.78800        4.6437977E-18
   54.94950        4.6430988E-18
   55.11100        4.6420007E-18
   55.27250        4.6411615E-18
   55.43400        4.6411392E-18
   55.59550        4.6421608E-18
   55.75700        4.6440141E-18
   55.91850        4.6461147E-18
   56.08000        4.6477260E-18
   56.24150        4.6482554E-18
   56.40300        4.6475064E-18
   56.56450        4.6457809E-18
   56.72600        4.6437771E-18
   56.88750        4.6423307E-18
   57.04900        4.6420900E-18
   57.21050        4.6432584E-18
   57.37200        4.6455133E-18
   57.53350        4.6481342E-18
   57.69500        4.6502845E-18
   57.85650        4.6513420E-18
   58.01800        4.6511348E-18
   58.17950        4.6499991E-18
   58.34100        4.6486248E-18
   58.50250        4.6477699E-18
   58.66400        4.6479498E-18
   58.82550        4.6492278E-18
   58.98700        4.6511898E-18
   59.14850        4.6531060E-18
   59.31000        4.6542115E-18
   59.47150        4.6540043E-18
   59.63300        4.6524339E-18
   59.79450        4.6499251E-18
   59.95600        4.6472260E-18
   60.11750        4.6451374E-18
   60.27900        4.6442312E-18
   60.44050        4.6446580E-18
   60.60200        4.6461064E-18
   60.76350        4.6479345E-18
   60.92500        4.6494093E-18
   61.08650        4.6499880E-18
   61.24800        4.6495127E-18
   61.40950        4.6482658E-18
   61.57100        4.6468509E-18
   61.73250        4.6459554E-18
   61.89400        4.6460742E-18
   62.05550        4.6473013E-18
   62.21700        4.6492791E-18
   62.37850        4.6513152E-18
   62.54000        4.6526358E-18
   62.70150        4.6526767E-18
   62.86300        4.6512990E-18
   63.02450        4.6488464E-18
   63.18600        4.6460158E-18
   63.34750        4.6435893E-18
   63.50900        4.6421388E-18
   63.67050        4.6418146E-18
   63.83200        4.6422981E-18
   63.99350        4.6429441E-18
   64.15500        4.6430525E-18
   64.31650        4.6421570E-18
   64.47800        4.6402326E-18
   64.63950        4.6377192E-18
   64.80100        4.6353692E-18
   64.96250        4.6339750E-18
   65.12400        4.6340751E-18
   65.28550        4.6357613E-18
   65.44700        4.6386419E-18
   65.60850        4.6419854E-18
   65.77000        4.6449810E-18
   65.93150        4.6470151E-18
   66.09300        4.6478753E-18
   66.25450        4.6477996E-18
   66.41600        4.6473629E-18
   66.57750        4.6472413E-18
   66.73900        4.6479436E-18
   66.90050        4.6496091E-18
   67.06200        4.6519393E-18
   67.22350        4.6543009E-18
   67.38500        4.6559573E-18
   67.54650        4.6563531E-18
   67.70800        4.6553402E-18
   67.86950        4.6532644E-18
   68.03100        4.6508631E-18
   68.19250        4.6490094E-18
   68.35400        4.6483874E-18
   68.51550        4.6492311E-18
   68.67700        4.6512176E-18
   68.83850        4.6535796E-18
   69.00000        4.6553861E-18
   69.16150        4.6558994E-18
   69.32300        4.6548642E-18
   69.48450        4.6526072E-18
   69.64600        4.6499098E-18
   69.80750        4.6476942E-18
   69.96900        4.6466569E-18
   70.13050        4.6469923E-18
   70.29200        4.6483216E-18
   70.45350        4.6498498E-18
   70.61500        4.6507018E-18
   70.77650        4.6502828E-18
   70.93800        4.6485329E-18
   71.09950        4.6459637E-18
   71.26100        4.6434648E-18
   71.42250        4.6419631E-18
   71.58400        4.6420644E-18
   71.74550        4.6438172E-18
   71.90700        4.6466925E-18
   72.06850        4.6497799E-18
   72.23000        4.6521237E-18
   72.39150        4.6530762E-18
   72.55300        4.6525262E-18
   72.71450        4.6509347E-18
   72.87600        4.6491455E-18
   73.03750        4.6480615E-18
   73.19900        4.6482926E-18
   73.36050        4.6499222E-18
   73.52200        4.6524666E-18
   73.68350        4.6550507E-18
   73.84500        4.6567415E-18
   74.00650        4.6569040E-18
   74.16800        4.6554610E-18
   74.32950        4.6529340E-18
   74.49100        4.6502584E-18
   74.65250        4.6484349E-18
   74.81400        4.6481450E-18
   74.97550        4.6494859E-18
   75.13700        4.6519273E-18
   75.29850        4.6545147E-18
   75.46000        4.6562365E-18
   75.62150        4.6564205E-18
   75.78300        4.6549936E-18
   75.94450        4.6525109E-18
   76.10600        4.6499276E-18
   76.26750        4.6482223E-18
   76.42900        4.6480064E-18
   76.59050        4.6492844E-18
   76.75200        4.6514612E-18
   76.91350        4.6535783E-18
   77.07500        4.6547074E-18
   77.23650        4.6543182E-18
   77.39800        4.6524989E-18
   77.55950        4.6499292E-18
   77.72100        4.6476264E-18
   77.88250        4.6465568E-18
   78.04400        4.6472703E-18
   78.20550        4.6496955E-18
   78.36700        4.6531631E-18
   78.52850        4.6566554E-18
   78.69000        4.6591821E-18
   78.85150        4.6601404E-18
   79.01300        4.6595303E-18
   79.17450        4.6579380E-18
   79.33600        4.6563006E-18
   79.49750        4.6555342E-18
   79.65900        4.6561711E-18
   79.82050        4.6581349E-18
   79.98200        4.6607463E-18
   80.14350        4.6629656E-18
   80.30500        4.6637775E-18
   80.46650        4.6625818E-18
   80.62800        4.6594414E-18
   80.78950        4.6550784E-18
   80.95100        4.6506228E-18
   81.11250        4.6472004E-18
   81.27400        4.6455228E-18
   81.43550        4.6456324E-18
   81.59700        4.6469166E-18
   81.75850        4.6483820E-18
   81.92000        4.6490781E-18
   82.08150        4.6485081E-18
   82.24300        4.6468488E-18
   82.40450        4.6448954E-18
   82.56600        4.6437403E-18
   82.72750        4.6443205E-18
   82.88900        4.6470151E-18
   83.05050        4.6514541E-18
   83.21200        4.6566269E-18
   83.37350        4.6612335E-18
   83.53500        4.6641571E-18
   83.69650        4.6648623E-18
   83.85800        4.6635678E-18
   84.01950        4.6611326E-18
   84.18100        4.6587015E-18
   84.34250        4.6572589E-18
   84.50400        4.6572589E-18
   84.66550        4.6584740E-18
   84.82700        4.6601184E-18
   84.98850        4.6611863E-18
   85.15000        4.6608674E-18
   85.31150        4.6588855E-18
   85.47300        4.6556223E-18
   85.63450        4.6519910E-18
   85.79600        4.6491000E-18
   85.95750        4.6478402E-18
   86.11900        4.6485524E-18
   86.28050        4.6508991E-18
   86.44200        4.6539948E-18
   86.60350        4.6567386E-18
   86.76500        4.6582292E-18
   86.92650        4.6581047E-18
   87.08800        4.6566695E-18
   87.24950        4.6547641E-18
   87.41100        4.6534257E-18
   87.57250        4.6534650E-18
   87.73400        4.6551355E-18
   87.89550        4.6580141E-18
   88.05700        4.6611652E-18
   88.21850        4.6634954E-18
   88.38000        4.6641873E-18
   88.54150        4.6630177E-18
   88.70300        4.6604514E-18
   88.86450        4.6574533E-18
   89.02600        4.6551156E-18
   89.18750        4.6542318E-18
   89.34900        4.6550019E-18
   89.51050        4.6569718E-18
   89.67200        4.6592387E-18
   89.83350        4.6608207E-18
   89.99500        4.6610490E-18
   90.15650        4.6598240E-18
   90.31800        4.6576431E-18
   90.47950        4.6553923E-18
   90.64100        4.6539956E-18
   90.80250        4.6540618E-18
   90.96400        4.6556603E-18
   91.12550        4.6583086E-18
   91.28700        4.6611619E-18
   91.44850        4.6633366E-18
   91.61000        4.6642275E-18
   91.77150        4.6637200E-18
   91.93300        4.6622104E-18
   92.09450        4.6604464E-18
   92.25600        4.6592379E-18
   92.41750        4.6591465E-18
   92.57900        4.6602789E-18
   92.74050        4.6622364E-18
   92.90200        4.6642614E-18
   93.06350        4.6655096E-18
   93.22500        4.6653611E-18
   93.38650        4.6636509E-18
   93.54800        4.6607326E-18
   93.70950        4.6573478E-18
   93.87100        4.6543555E-18
   94.03250        4.6524124E-18
   94.19400        4.6517383E-18
   94.35550        4.6520526E-18
   94.51700        4.6527127E-18
   94.67850        4.6529952E-18
   94.84000        4.6524025E-18
   95.00150        4.6508879E-18
   95.16300        4.6488862E-18
   95.32450        4.6471573E-18
   95.48600        4.6464989E-18
   95.64750        4.6474378E-18
   95.80900        4.6500297E-18
   95.97050        4.6538360E-18
   96.13200        4.6580823E-18
   96.29350        4.6619324E-18
   96.45500        4.6647680E-18
   96.61650        4.6663752E-18
   96.77800        4.6669712E-18
   96.93950        4.6670759E-18
   97.10100        4.6672744E-18
   97.26250        4.6679750E-18
   97.42400        4.6692369E-18
   97.58550        4.6707370E-18
   97.74700        4.6718805E-18
   97.90850        4.6720162E-18
   98.07000        4.6706844E-18
   98.23150        4.6678058E-18
   98.39300        4.6637506E-18
   98.55450        4.6592524E-18
   98.71600        4.6551951E-18
   98.87750        4.6523334E-18
   99.03900        4.6510534E-18
   99.20050        4.6512564E-18
   99.36200        4.6524128E-18
   99.52350        4.6537756E-18
   99.68500        4.6546748E-18
   99.84650        4.6547794E-18
   100.0080        4.6542248E-18
   100.1695        4.6535490E-18
   100.3310        4.6534547E-18
   100.4925        4.6544990E-18
   100.6540        4.6568267E-18
   100.8155        4.6600684E-18
   100.9770        4.6634470E-18
   101.1385        4.6660539E-18
   101.3000        4.6671867E-18
   101.4615        4.6666101E-18
   101.6230        4.6646419E-18
   101.7845        4.6620205E-18
   101.9460        4.6596168E-18
   102.1075        4.6581043E-18
   102.2690        4.6577138E-18
   102.4305        4.6581795E-18
   102.5920        4.6588768E-18
   102.7535        4.6591068E-18
   102.9150        4.6584045E-18
   103.0765        4.6567485E-18
   103.2380        4.6545954E-18
   103.3995        4.6527230E-18
   103.5610        4.6519438E-18
   103.7225        4.6527966E-18
   103.8840        4.6553349E-18
   104.0455        4.6590836E-18
   104.2070        4.6631993E-18
   104.3685        4.6667541E-18
   104.5300        4.6690549E-18
   104.6915        4.6698697E-18
   104.8530        4.6694863E-18
   105.0145        4.6685689E-18
   105.1760        4.6678782E-18
   105.3375        4.6679518E-18
   105.4990        4.6688828E-18
   105.6605        4.6702770E-18
   105.8220        4.6714177E-18
   105.9835        4.6715621E-18
   106.1450        4.6702605E-18
   106.3065        4.6675589E-18
   106.4680        4.6640004E-18
   106.6295        4.6604257E-18
   106.7910        4.6576476E-18
   106.9525        4.6561347E-18
   107.1140        4.6558374E-18
   107.2755        4.6562286E-18
   107.4370        4.6565334E-18
   107.5985        4.6560640E-18
   107.7600        4.6545006E-18
   107.9215        4.6520228E-18
   108.0830        4.6492311E-18
   108.2445        4.6469042E-18
   108.4060        4.6456936E-18
   108.5675        4.6458847E-18
   108.7290        4.6473199E-18
   108.8905        4.6494962E-18
   109.0520        4.6517904E-18
   109.2135        4.6537119E-18
   109.3750        4.6550755E-18
   109.5365        4.6560380E-18
   109.6980        4.6569958E-18
   109.8595        4.6583962E-18
   110.0210        4.6605374E-18
   110.1825        4.6634437E-18
   110.3440        4.6668467E-18
   110.5055        4.6702688E-18
   110.6670        4.6731833E-18
   110.8285        4.6751748E-18
   110.9900        4.6760566E-18
   111.1515        4.6759023E-18
   111.3130        4.6749916E-18
   111.4745        4.6737003E-18
   111.6360        4.6723636E-18
   111.7975        4.6711658E-18
   111.9590        4.6701017E-18
   112.1205        4.6689953E-18
   112.2820        4.6675978E-18
   112.4435        4.6657060E-18
   112.6050        4.6632630E-18
   112.7665        4.6604063E-18
   112.9280        4.6574429E-18
   113.0895        4.6547670E-18
   113.2510        4.6527441E-18
   113.4125        4.6516138E-18
   113.5740        4.6514330E-18
   113.7355        4.6520869E-18
   113.8970        4.6533430E-18
   114.0585        4.6549283E-18
   114.2200        4.6566042E-18
   114.3815        4.6582155E-18
   114.5430        4.6597086E-18
   114.7045        4.6611144E-18
   114.8660        4.6625148E-18
   115.0275        4.6639950E-18
   115.1890        4.6655865E-18
   115.3505        4.6672235E-18
   115.5120        4.6687219E-18
   115.6735        4.6697969E-18
   115.8350        4.6701323E-18
   115.9965        4.6694887E-18
   116.1580        4.6678133E-18
   116.3195        4.6653073E-18
   116.4810        4.6624056E-18
   116.6425        4.6596598E-18
   116.8040        4.6575641E-18
   116.9655        4.6563730E-18
   117.1270        4.6560107E-18
   117.2885        4.6561012E-18
   117.4500        4.6561405E-18
   117.6115        4.6557162E-18
   117.7730        4.6547074E-18
   117.9345        4.6533542E-18
   118.0960        4.6521684E-18
   118.2575        4.6517114E-18
   118.4190        4.6523371E-18
   118.5805        4.6540151E-18
   118.7420        4.6563138E-18