  -27.90000        5.5546431E-18
  -27.73850        5.5564476E-18
  -27.57700        5.5594896E-18
  -27.41550        5.5629509E-18
  -27.25400        5.5661505E-18
  -27.09250        5.5688280E-18
  -26.93100        5.5711785E-18
  -26.76950        5.5736369E-18
  -26.60800        5.5765576E-18
  -26.44650        5.5799669E-18
  -26.28500        5.5835378E-18
  -26.12350        5.5867824E-18
  -25.96200        5.5893508E-18
  -25.80050        5.5912380E-18
  -25.63900        5.5927894E-18
  -25.47750        5.5944876E-18
  -25.31600        5.5966618E-18
  -25.15450        5.5992939E-18
  -24.99300        5.6020369E-18
  -24.83150        5.6044377E-18
  -24.67000        5.6062212E-18
  -24.50850        5.6074549E-18
  -24.34700        5.6085033E-18
  -24.18550        5.6097950E-18
  -24.02400        5.6115552E-18
  -23.86250        5.6136550E-18
  -23.70100        5.6156833E-18
  -23.53950        5.6171954E-18
  -23.37800        5.6179944E-18
  -23.21650        5.6182769E-18
  -23.05500        5.6185424E-18
  -22.89350        5.6193105E-18
  -22.73200        5.6208110E-18
  -22.57050        5.6228305E-18
  -22.40900        5.6248215E-18
  -22.24750        5.6262029E-18
  -22.08600        5.6266947E-18
  -21.92450        5.6264817E-18
  -21.76300        5.6261157E-18
  -21.60150        5.6262153E-18
  -21.44000        5.6271294E-18
  -21.27850        5.6287445E-18
  -21.11700        5.6305601E-18
  -20.95550        5.6319705E-18
  -20.79400        5.6326016E-18
  -20.63250        5.6325197E-18
  -20.47100        5.6321818E-18
  -20.30950        5.6321739E-18
  -20.14800        5.6328895E-18
  -19.98650        5.6343321E-18
  -19.82500        5.6361531E-18
  -19.66350        5.6378794E-18
  -19.50200        5.6391897E-18
  -19.34050        5.6400648E-18
  -19.17900        5.6407406E-18
  -19.01750        5.6415029E-18
  -18.85600        5.6424637E-18
  -18.69450        5.6434695E-18
  -18.53300        5.6441962E-18
  -18.37150        5.6443885E-18
  -18.21000        5.6440808E-18
  -18.04850        5.6436631E-18
  -17.88700        5.6437156E-18
  -17.72550        5.6447136E-18
  -17.56400        5.6467513E-18
  -17.40250        5.6494674E-18
  -17.24100        5.6522186E-18
  -17.07950        5.6544098E-18
  -16.91800        5.6557933E-18
  -16.75650        5.6565692E-18
  -16.59500        5.6572288E-18
  -16.43350        5.6582409E-18
  -16.27200        5.6597509E-18
  -16.11050        5.6614743E-18
  -15.94900        5.6628541E-18
  -15.78750        5.6633855E-18
  -15.62600        5.6629360E-18
  -15.46450        5.6618685E-18
  -15.30300        5.6608862E-18
  -15.14150        5.6606885E-18
  -14.98000        5.6616245E-18
  -14.81850        5.6635336E-18
  -14.65700        5.6658629E-18
  -14.49550        5.6679760E-18
  -14.33400        5.6694736E-18
  -14.17250        5.6703611E-18
  -14.01100        5.6709770E-18
  -13.84950        5.6717430E-18
  -13.68800        5.6729002E-18
  -13.52650        5.6743775E-18
  -13.36500        5.6758644E-18
  -13.20350        5.6770348E-18
  -13.04200        5.6777677E-18
  -12.88050        5.6782256E-18
  -12.71900        5.6787376E-18
  -12.55750        5.6795677E-18
  -12.39600        5.6807249E-18
  -12.23450        5.6819413E-18
  -12.07300        5.6828437E-18
  -11.91150        5.6832155E-18
  -11.75000        5.6831729E-18
  -11.58850        5.6831469E-18
  -11.42700        5.6836535E-18
  -11.26550        5.6849903E-18
  -11.10400        5.6870218E-18
  -10.94250        5.6892072E-18
  -10.78100        5.6908608E-18
  -10.61950        5.6915221E-18
  -10.45800        5.6912309E-18
  -10.29650        5.6905373E-18
  -10.13500        5.6902371E-18
  -9.973500        5.6909642E-18
  -9.812000        5.6928634E-18
  -9.650500        5.6955244E-18
  -9.489000        5.6982012E-18
  -9.327500        5.7001988E-18
  -9.166000        5.7012059E-18
  -9.004500        5.7014069E-18
  -8.843000        5.7013209E-18
  -8.681500        5.7014772E-18
  -8.520000        5.7021174E-18
  -8.358500        5.7030774E-18
  -8.197000        5.7039203E-18
  -8.035500        5.7042197E-18
  -7.874000        5.7038276E-18
  -7.712500        5.7029632E-18
  -7.551000        5.7020877E-18
  -7.389500        5.7016426E-18
  -7.228000        5.7018288E-18
  -7.066500        5.7025455E-18
  -6.905000        5.7035162E-18
  -6.743500        5.7045030E-18
  -6.582000        5.7054626E-18
  -6.420500        5.7065503E-18
  -6.259000        5.7079664E-18
  -6.097500        5.7097585E-18
  -5.936000        5.7117144E-18
  -5.774500        5.7134358E-18
  -5.613000        5.7145640E-18
  -5.451500        5.7150339E-18
  -5.290000        5.7151857E-18
  -5.128500        5.7156389E-18
  -4.967000        5.7169815E-18
  -4.805500        5.7194274E-18
  -4.644000        5.7226539E-18
  -4.482500        5.7259105E-18
  -4.321000        5.7283643E-18
  -4.159500        5.7294984E-18
  -3.998000        5.7293524E-18
  -3.836500        5.7284830E-18
  -3.675000        5.7276604E-18
  -3.513500        5.7274718E-18
  -3.352000        5.7280322E-18
  -3.190500        5.7289648E-18
  -3.029000        5.7296402E-18
  -2.867500        5.7295550E-18
  -2.706000        5.7286182E-18
  -2.544500        5.7272067E-18
  -2.383000        5.7259659E-18
  -2.221500        5.7254828E-18
  -2.060000        5.7260134E-18
  -1.898500        5.7274147E-18
  -1.737000        5.7292833E-18
  -1.575500        5.7311982E-18
  -1.414000        5.7329212E-18
  -1.252500        5.7344470E-18
  -1.091000        5.7358921E-18
 -0.9295000        5.7373222E-18
 -0.7680000        5.7386437E-18
 -0.6065000        5.7396408E-18
 -0.4450000        5.7401380E-18
 -0.2835000        5.7401744E-18
 -0.1220000        5.7400639E-18
  3.9500002E-02    5.7402654E-18
  0.2010000        5.7411335E-18
  0.3625000        5.7426911E-18
  0.5240000        5.7445762E-18
  0.6855000        5.7462115E-18
  0.8470000        5.7471165E-18
   1.008500        5.7471893E-18
   1.170000        5.7467910E-18
   1.331500        5.7465685E-18
   1.493000        5.7471037E-18
   1.654500        5.7485657E-18
   1.816000        5.7505687E-18
   1.977500        5.7523261E-18
   2.139000        5.7530403E-18
   2.300500        5.7523219E-18
   2.462000        5.7504165E-18
   2.623500        5.7481136E-18
   2.785000        5.7463873E-18
   2.946500        5.7459535E-18
   3.108000        5.7469655E-18
   3.269500        5.7490029E-18
   3.431000        5.7513186E-18
   3.592500        5.7532157E-18
   3.754000        5.7543431E-18
   3.915500        5.7547844E-18
   4.077000        5.7549127E-18
   4.238500        5.7551323E-18
   4.400000        5.7556625E-18
   4.561500        5.7564773E-18
   4.723000        5.7574087E-18
   4.884500        5.7583223E-18
   5.046000        5.7592219E-18
   5.207500        5.7602211E-18
   5.369000        5.7614089E-18
   5.530500        5.7627183E-18
   5.692000        5.7639103E-18
   5.853500        5.7646953E-18
   6.015000        5.7649381E-18
   6.176500        5.7647921E-18
   6.338000        5.7646746E-18
   6.499500        5.7650584E-18
   6.661000        5.7661818E-18
   6.822500        5.7678506E-18
   6.984000        5.7694652E-18
   7.145500        5.7702966E-18
   7.307000        5.7698784E-18
   7.468500        5.7683126E-18
   7.630000        5.7662930E-18
   7.791500        5.7648248E-18
   7.953000        5.7647540E-18
   8.114500        5.7663584E-18
   8.276000        5.7692055E-18
   8.437500        5.7723595E-18
   8.599000        5.7748250E-18
   8.760500        5.7760037E-18
   8.922000        5.7759433E-18
   9.083500        5.7752522E-18
   9.245000        5.7747518E-18
   9.406500        5.7750487E-18
   9.568000        5.7762589E-18
   9.729500        5.7780026E-18
   9.891000        5.7796553E-18
   10.05250        5.7806893E-18
   10.21400        5.7809130E-18
   10.37550        5.7805060E-18
   10.53700        5.7798604E-18
   10.69850        5.7793583E-18
   10.86000        5.7792202E-18
   11.02150        5.7794927E-18
   11.18300        5.7801450E-18
   11.34450        5.7811727E-18
   11.50600        5.7826129E-18
   11.66750        5.7844546E-18
   11.82900        5.7865076E-18
   11.99050        5.7883543E-18
   12.15200        5.7894590E-18
   12.31350        5.7894202E-18
   12.47500        5.7882315E-18
   12.63650        5.7863902E-18
   12.79800        5.7847395E-18
   12.95950        5.7841072E-18
   13.12100        5.7848942E-18
   13.28250        5.7868526E-18
   13.44400        5.7891728E-18
   13.60550        5.7908702E-18
   13.76700        5.7912710E-18
   13.92850        5.7903611E-18
   14.09000        5.7888080E-18
   14.25150        5.7876380E-18
   14.41300        5.7877253E-18
   14.57450        5.7893631E-18
   14.73600        5.7921205E-18
   14.89750        5.7950702E-18
   15.05900        5.7972486E-18
   15.22050        5.7981105E-18
   15.38200        5.7977511E-18
   15.54350        5.7968011E-18
   15.70500        5.7960785E-18
   15.86650        5.7961952E-18
   16.02800        5.7973106E-18
   16.18950        5.7991321E-18
   16.35100        5.8011169E-18
   16.51250        5.8027423E-18
   16.67400        5.8036948E-18
   16.83550        5.8038999E-18
   16.99700        5.8034404E-18
   17.15850        5.8024412E-18
   17.32000        5.8010329E-18
   17.48150        5.7994013E-18
   17.64300        5.7978545E-18
   17.80450        5.7968131E-18
   17.96600        5.7966708E-18
   18.12750        5.7975762E-18
   18.28900        5.7992723E-18
   18.45050        5.8011157E-18
   18.61200        5.8023200E-18
   18.77350        5.8023291E-18
   18.93500        5.8011347E-18
   19.09650        5.7993496E-18
   19.25800        5.7979736E-18
   19.41950        5.7979277E-18
   19.58100        5.7995891E-18
   19.74250        5.8025616E-18
   19.90400        5.8058215E-18
   20.06550        5.8081876E-18
   20.22700        5.8088792E-18
   20.38850        5.8078915E-18
   20.55000        5.8059919E-18
   20.71150        5.8043520E-18
   20.87300        5.8039959E-18
   21.03450        5.8053425E-18
   21.19600        5.8080565E-18
   21.35750        5.8112528E-18
   21.51900        5.8139316E-18
   21.68050        5.8154180E-18
   21.84200        5.8156000E-18
   22.00350        5.8148820E-18
   22.16500        5.8139208E-18
   22.32650        5.8133079E-18
   22.48800        5.8133625E-18
   22.64950        5.8141136E-18
   22.81100        5.8154031E-18
   22.97250        5.8170232E-18
   23.13400        5.8187789E-18
   23.29550        5.8204787E-18
   23.45700        5.8218953E-18
   23.61850        5.8227882E-18
   23.78000        5.8230111E-18
   23.94150        5.8226389E-18
   24.10300        5.8220297E-18
   24.26450        5.8217265E-18
   24.42600        5.8222042E-18
   24.58750        5.8235740E-18
   24.74900        5.8254162E-18
   24.91050        5.8268679E-18
   25.07200        5.8269849E-18
   25.23350        5.8252209E-18
   25.39500        5.8217782E-18
   25.55650        5.8176365E-18
   25.71800        5.8141950E-18
   25.87950        5.8126871E-18
   26.04100        5.8136305E-18
   26.20250        5.8165930E-18
   26.36400        5.8203832E-18
   26.52550        5.8235827E-18
   26.68700        5.8251701E-18
   26.84850        5.8249397E-18
   27.01000        5.8235265E-18
   27.17150        5.8220524E-18
   27.33300        5.8215805E-18
   27.49450        5.8226488E-18
   27.65600        5.8250969E-18
   27.81750        5.8282265E-18
   27.97900        5.8311775E-18
   28.14050        5.8333004E-18
   28.30200        5.8343662E-18
   28.46350        5.8345429E-18
   28.62500        5.8342182E-18
   28.78650        5.8337918E-18
   28.94800        5.8335416E-18
   29.10950        5.8335957E-18
   29.27100        5.8339709E-18
   29.43250        5.8345979E-18
   29.59400        5.8353059E-18
   29.75550        5.8357787E-18
   29.91700        5.8355743E-18
   30.07850        5.8342546E-18
   30.24000        5.8316097E-18
   30.40150        5.8278675E-18
   30.56300        5.8237473E-18
   30.72450        5.8202657E-18
   30.88600        5.8183438E-18
   31.04750        5.8183855E-18
   31.20900        5.8200473E-18
   31.37050        5.8223382E-18
   31.53200        5.8240459E-18
   31.69350        5.8242957E-18
   31.85500        5.8229888E-18
   32.01650        5.8208849E-18
   32.17800        5.8192789E-18
   32.33950        5.8194054E-18
   32.50100        5.8218613E-18
   32.66250        5.8263182E-18
   32.82400        5.8316692E-18
   32.98550        5.8365318E-18
   33.14700        5.8398492E-18
   33.30850        5.8413162E-18
   33.47000        5.8414391E-18
   33.63150        5.8412360E-18
   33.79300        5.8417468E-18
   33.95450        5.8435906E-18
   34.11600        5.8467533E-18
   34.27750        5.8506646E-18
   34.43900        5.8544796E-18
   34.60050        5.8574098E-18
   34.76200        5.8589472E-18
   34.92350        5.8589405E-18
   35.08500        5.8575455E-18
   35.24650        5.8551372E-18
   35.40800        5.8522433E-18
   35.56950        5.8494830E-18
   35.73100        5.8474675E-18
   35.89250        5.8466433E-18
   36.05400        5.8471040E-18
   36.21550        5.8484784E-18
   36.37700        5.8499871E-18
   36.53850        5.8507118E-18
   36.70000        5.8499830E-18
   36.86150        5.8477269E-18
   37.02300        5.8445737E-18
   37.18450        5.8416380E-18
   37.34600        5.8400246E-18
   37.50750        5.8402864E-18
   37.66900        5.8421066E-18
   37.83050        5.8443863E-18
   37.99200        5.8457325E-18
   38.15350        5.8451225E-18
   38.31500        5.8424184E-18
   38.47650        5.8384827E-18
   38.63800        5.8348229E-18
   38.79950        5.8329307E-18
   38.96100        5.8336325E-18
   39.12250        5.8367465E-18
   39.28400        5.8411938E-18
   39.44550        5.8455009E-18
   39.60700        5.8484391E-18
   39.76850        5.8494908E-18
   39.93000        5.8489718E-18
   40.09150        5.8477744E-18
   40.25300        5.8469162E-18
   40.41450        5.8471255E-18
   40.57600        5.8486211E-18
   40.73750        5.8511435E-18
   40.89900        5.8541462E-18
   41.06050        5.8570103E-18
   41.22200        5.8592048E-18
   41.38350        5.8603616E-18
   41.54500        5.8603112E-18
   41.70650        5.8591242E-18
   41.86800        5.8571547E-18
   42.02950        5.8550305E-18
   42.19100        5.8535246E-18
   42.35250        5.8532876E-18
   42.51400        5.8545346E-18
   42.67550        5.8568445E-18
   42.83700        5.8592243E-18
   42.99850        5.8604750E-18
   43.16000        5.8597322E-18
   43.32150        5.8569326E-18
   43.48300        5.8529447E-18
   43.64450        5.8492774E-18
   43.80600        5.8474518E-18
   43.96750        5.8483286E-18
   44.12900        5.8517077E-18
   44.29050        5.8564048E-18
   44.45200        5.8607818E-18
   44.61350        5.8634776E-18
   44.77500        5.8639996E-18
   44.93650        5.8628932E-18
   45.09800        5.8614246E-18
   45.25950        5.8609473E-18
   45.42100        5.8622790E-18
   45.58250        5.8653719E-18
   45.74400        5.8694040E-18
   45.90550        5.8732016E-18
   46.06700        5.8757588E-18
   46.22850        5.8766050E-18
   46.39000        5.8758862E-18
   46.55150        5.8741888E-18
   46.71300        5.8722383E-18
   46.87450        5.8706414E-18
   47.03600        5.8697563E-18
   47.19750        5.8696951E-18
   47.35900        5.8703709E-18
   47.52050        5.8715215E-18
   47.68200        5.8727065E-18
   47.84350        5.8733467E-18
   48.00500        5.8728624E-18
   48.16650        5.8709252E-18
   48.32800        5.8677066E-18
   48.48950        5.8639772E-18
   48.65100        5.8609187E-18
   48.81250        5.8596867E-18
   48.97400        5.8608786E-18
   49.13550        5.8641733E-18
   49.29700        5.8683530E-18
   49.45850        5.8717486E-18
   49.62000        5.8729435E-18
   49.78150        5.8714182E-18
   49.94300        5.8678199E-18
   50.10450        5.8636997E-18
   50.26600        5.8608307E-18
   50.42750        5.8604121E-18
   50.58900        5.8625499E-18
   50.75050        5.8662367E-18
   50.91200        5.8698366E-18
   51.07350        5.8718301E-18
   51.23500        5.8714587E-18
   51.39650        5.8689958E-18
   51.55800        5.8655464E-18
   51.71950        5.8625189E-18
   51.88100        5.8610267E-18
   52.04250        5.8614982E-18
   52.20400        5.8636145E-18
   52.36550        5.8665539E-18
   52.52700        5.8693667E-18
   52.68850        5.8713065E-18
   52.85000        5.8720034E-18
   53.01150        5.8714847E-18
   53.17300        5.8701079E-18
   53.33450        5.8684713E-18
   53.49600        5.8673071E-18
   53.65750        5.8673286E-18
   53.81900        5.8690160E-18
   53.98050        5.8723897E-18
   54.14200        5.8768755E-18
   54.30350        5.8813869E-18
   54.46500        5.8846580E-18
   54.62650        5.8857486E-18
   54.78800        5.8845062E-18
   54.94950        5.8817451E-18
   55.11100        5.8789943E-18
   55.27250        5.8778714E-18
   55.43400        5.8793417E-18
   55.59550        5.8832129E-18
   55.75700        5.8881421E-18
   55.91850        5.8921866E-18
   56.08000        5.8936643E-18
   56.24150        5.8919260E-18
   56.40300        5.8876714E-18
   56.56450        5.8826620E-18
   56.72600        5.8789467E-18
   56.88750        5.8779785E-18
   57.04900        5.8800022E-18
   57.21050        5.8840029E-18
   57.37200        5.8881971E-18
   57.53350        5.8908213E-18
   57.69500        5.8908482E-18
   57.85650        5.8883208E-18
   58.01800        5.8842171E-18
   58.17950        5.8799666E-18
   58.34100        5.8768804E-18
   58.50250        5.8757315E-18
   58.66400        5.8766042E-18
   58.82550        5.8790005E-18
   58.98700        5.8820780E-18
   59.14850        5.8849124E-18
   59.31000        5.8867164E-18
   59.47150        5.8870039E-18
   59.63300        5.8857073E-18
   59.79450        5.8832460E-18
   59.95600        5.8804795E-18
   60.11750        5.8785034E-18
   60.27900        5.8782718E-18
   60.44050        5.8801734E-18
   60.60200        5.8837489E-18
   60.76350        5.8877455E-18
   60.92500        5.8905570E-18
   61.08650        5.8909086E-18
   61.24800        5.8884812E-18
   61.40950        5.8841683E-18
   61.57100        5.8797888E-18
   61.73250        5.8773532E-18
   61.89400        5.8781741E-18
   62.05550        5.8822517E-18
   62.21700        5.8882211E-18
   62.37850        5.8939216E-18
   62.54000        5.8973296E-18
   62.70150        5.8974301E-18
   62.86300        5.8946239E-18
   63.02450        5.8904896E-18
   63.18600        5.8870444E-18
   63.34750        5.8858616E-18
   63.50900        5.8874448E-18
   63.67050        5.8911154E-18
   63.83200        5.8954023E-18
   63.99350        5.8987081E-18
   64.15500        5.8999426E-18
   64.31650        5.8988652E-18
   64.47800        5.8960470E-18
   64.63950        5.8925551E-18
   64.80100        5.8895392E-18
   64.96250        5.8878906E-18
   65.12400        5.8880569E-18
   65.28550        5.8899830E-18
   65.44700        5.8931370E-18
   65.60850        5.8965955E-18
   65.77000        5.8992288E-18
   65.93150        5.9000010E-18
   66.09300        5.8983561E-18
   66.25450        5.8945345E-18
   66.41600        5.8896575E-18
   66.57750        5.8854409E-18
   66.73900        5.8835835E-18
   66.90050        5.8850377E-18
   67.06200        5.8894999E-18
   67.22350        5.8953973E-18
   67.38500        5.9004580E-18
   67.54650        5.9026595E-18
   67.70800        5.9011404E-18
   67.86950        5.8966381E-18
   68.03100        5.8912126E-18
   68.19250        5.8873505E-18
   68.35400        5.8868678E-18
   68.51550        5.8901050E-18
   68.67700        5.8957989E-18
   68.83850        5.9016677E-18
   69.00000        5.9054335E-18
   69.16150        5.9057978E-18
   69.32300        5.9029424E-18
   69.48450        5.8983586E-18
   69.64600        5.8941276E-18
   69.80750        5.8920286E-18
   69.96900        5.8928690E-18
   70.13050        5.8962923E-18
   70.29200        5.9010676E-18
   70.45350        5.9056473E-18
   70.61500        5.9087302E-18
   70.77650        5.9096178E-18
   70.93800        5.9083158E-18
   71.09950        5.9054339E-18
   71.26100        5.9019775E-18
   71.42250        5.8990907E-18
   71.58400        5.8977713E-18
   71.74550        5.8985728E-18
   71.90700        5.9013497E-18
   72.06850        5.9051634E-18
   72.23000        5.9084709E-18
   72.39150        5.9096207E-18
   72.55300        5.9075420E-18
   72.71450        5.9023299E-18
   72.87600        5.8954238E-18
   73.03750        5.8891893E-18
   73.19900        5.8860109E-18
   73.36050        5.8872558E-18
   73.52200        5.8925923E-18
   73.68350        5.9000233E-18
   73.84500        5.9066771E-18
   74.00650        5.9100276E-18
   74.16800        5.9089994E-18
   74.32950        5.9044421E-18
   74.49100        5.8987465E-18
   74.65250        5.8947699E-18
   74.81400        5.8945771E-18
   74.97550        5.8985617E-18
   75.13700        5.9053474E-18
   75.29850        5.9124616E-18
   75.46000        5.9174338E-18
   75.62150        5.9188007E-18
   75.78300        5.9165934E-18
   75.94450        5.9121564E-18
   76.10600        5.9074733E-18
   76.26750        5.9043428E-18
   76.42900        5.9037663E-18
   76.59050        5.9057271E-18
   76.75200        5.9093630E-18
   76.91350        5.9133616E-18
   77.07500        5.9163994E-18
   77.23650        5.9174859E-18
   77.39800        5.9161876E-18
   77.55950        5.9127404E-18
   77.72100        5.9080366E-18
   77.88250        5.9034544E-18
   78.04400        5.9004828E-18
   78.20550        5.9001995E-18
   78.36700        5.9027700E-18
   78.52850        5.9072103E-18
   78.69000        5.9116129E-18
   78.85150        5.9138347E-18
   79.01300        5.9124116E-18
   79.17450        5.9072963E-18
   79.33600        5.9000427E-18
   79.49750        5.8932648E-18
   79.65900        5.8895681E-18
   79.82050        5.8903962E-18
   79.98200        5.8953377E-18
   80.14350        5.9022459E-18
   80.30500        5.9081458E-18
   80.46650        5.9105310E-18
   80.62800        5.9084506E-18
   80.78950        5.9028957E-18
   80.95100        5.8963221E-18
   81.11250        5.8915604E-18
   81.27400        5.8906228E-18
   81.43550        5.8939377E-18
   81.59700        5.9003058E-18
   81.75850        5.9075204E-18
   81.92000        5.9133235E-18
   82.08150        5.9162501E-18
   82.24300        5.9160342E-18
   82.40450        5.9135084E-18
   82.56600        5.9101277E-18
   82.72750        5.9073918E-18
   82.88900        5.9063963E-18
   83.05050        5.9075974E-18
   83.21200        5.9107762E-18
   83.37350        5.9151280E-18
   83.53500        5.9194472E-18
   83.69650        5.9224109E-18
   83.85800        5.9229569E-18
   84.01950        5.9206921E-18
   84.18100        5.9161719E-18
   84.34250        5.9108693E-18
   84.50400        5.9067412E-18
   84.66550        5.9054897E-18
   84.82700        5.9077831E-18
   84.98850        5.9128202E-18
   85.15000        5.9185009E-18
   85.31150        5.9222228E-18
   85.47300        5.9219994E-18
   85.63450        5.9173995E-18
   85.79600        5.9098407E-18
   85.95750        5.9020602E-18
   86.11900        5.8969553E-18
   86.28050        5.8963328E-18
   86.44200        5.9001180E-18
   86.60350        5.9064104E-18
   86.76500        5.9123375E-18
   86.92650        5.9153274E-18
   87.08800        5.9142037E-18
   87.24950        5.9096314E-18
   87.41100        5.9037460E-18
   87.57250        5.8991829E-18
   87.73400        5.8979665E-18
   87.89550        5.9007504E-18
   88.05700        5.9066821E-18
   88.21850        5.9138546E-18
   88.38000        5.9200899E-18
   88.54150        5.9236906E-18
   88.70300        5.9239143E-18
   88.86450        5.9210684E-18
   89.02600        5.9162977E-18
   89.18750        5.9111956E-18
   89.34900        5.9073649E-18
   89.51050        5.9060038E-18
   89.67200        5.9075771E-18
   89.83350        5.9116336E-18
   89.99500        5.9168510E-18
   90.15650        5.9213786E-18
   90.31800        5.9234561E-18
   90.47950        5.9221239E-18
   90.64100        5.9177403E-18
   90.80250        5.9120145E-18
   90.96400        5.9074377E-18
   91.12550        5.9062805E-18
   91.28700        5.9095615E-18
   91.44850        5.9164739E-18
   91.61000        5.9245881E-18
   91.77150        5.9308048E-18
   91.93300        5.9326767E-18
   92.09450        5.9294978E-18
   92.25600        5.9226616E-18
   92.41750        5.9150763E-18
   92.57900        5.9098949E-18
   92.74050        5.9091347E-18
   92.90200        5.9128111E-18
   93.06350        5.9189806E-18
   93.22500        5.9246394E-18
   93.38650        5.9270494E-18
   93.54800        5.9248784E-18
   93.70950        5.9186783E-18
   93.87100        5.9105442E-18
   94.03250        5.9031806E-18
   94.19400        5.8988202E-18
   94.35550        5.8984521E-18
   94.51700        5.9016247E-18
   94.67850        5.9068004E-18
   94.84000        5.9120360E-18
   95.00150        5.9156744E-18
   95.16300        5.9168175E-18
   95.32450        5.9155007E-18
   95.48600        5.9125960E-18
   95.64750        5.9095255E-18
   95.80900        5.9078575E-18
   95.97050        5.9088307E-18
   96.13200        5.9129091E-18
   96.29350        5.9194860E-18
   96.45500        5.9269170E-18
   96.61650        5.9329484E-18
   96.77800        5.9354895E-18
   96.93950        5.9334604E-18
   97.10100        5.9273616E-18
   97.26250        5.9192515E-18
   97.42400        5.9120418E-18
   97.58550        5.9083526E-18
   97.74700        5.9093903E-18
   97.90850        5.9143873E-18
   98.07000        5.9208939E-18
   98.23150        5.9258396E-18
   98.39300        5.9268951E-18
   98.55450        5.9235074E-18
   98.71600        5.9171397E-18
   98.87750        5.9105980E-18
   99.03900        5.9067723E-18
   99.20050        5.9073790E-18
   99.36200        5.9122631E-18
   99.52350        5.9195514E-18
   99.68500        5.9265406E-18
   99.84650        5.9308610E-18
   100.0080        5.9313958E-18
   100.1695        5.9285734E-18
   100.3310        5.9240000E-18
   100.4925        5.9196800E-18
   100.6540        5.9172262E-18
   100.8155        5.9173631E-18
   100.9770        5.9198446E-18
   101.1385        5.9236968E-18
   101.3000        5.9276164E-18
   101.4615        5.9303440E-18
   101.6230        5.9309627E-18
   101.7845        5.9290913E-18
   101.9460        5.9250104E-18
   102.1075        5.9196800E-18
   102.2690        5.9145689E-18
   102.4305        5.9112593E-18
   102.5920        5.9108825E-18
   102.7535        5.9135795E-18
   102.9150        5.9182721E-18
   103.0765        5.9229370E-18
   103.2380        5.9253652E-18
   103.3995        5.9241215E-18
   103.5610        5.9192776E-18
   103.7225        5.9125187E-18
   103.8840        5.9065311E-18
   104.0455        5.9038792E-18
   104.2070        5.9058793E-18
   104.3685        5.9119773E-18
   104.5300        5.9199517E-18
   104.6915        5.9268529E-18
   104.8530        5.9302638E-18
   105.0145        5.9293022E-18
   105.1760        5.9249276E-18
   105.3375        5.9194422E-18
   105.4990        5.9154548E-18
   105.6605        5.9147959E-18
   105.8220        5.9178515E-18
   105.9835        5.9235458E-18
   106.1450        5.9298949E-18
   106.3065        5.9348290E-18
   106.4680        5.9369280E-18
   106.6295        5.9358042E-18
   106.7910        5.9320827E-18
   106.9525        5.9270717E-18
   107.1140        5.9223071E-18
   107.2755        5.9191217E-18
   107.4370        5.9183094E-18
   107.5985        5.9199228E-18
   107.7600        5.9232216E-18
   107.9215        5.9268235E-18
   108.0830        5.9290875E-18
   108.2445        5.9286797E-18
   108.4060        5.9251477E-18
   108.5675        5.9192635E-18
   108.7290        5.9128984E-18
   108.8905        5.9083973E-18
   109.0520        5.9076416E-18
   109.2135        5.9111840E-18
   109.3750        5.9178751E-18
   109.5365        5.9252167E-18
   109.6980        5.9303548E-18
   109.8595        5.9313056E-18
   110.0210        5.9278641E-18
   110.1825        5.9217492E-18
   110.3440        5.9158824E-18
   110.5055        5.9131159E-18
   110.6670        5.9149651E-18
   110.8285        5.9209299E-18
   110.9900        5.9287062E-18
   111.1515        5.9351859E-18
   111.3130        5.9377795E-18
   111.4745        5.9354792E-18
   111.6360        5.9292203E-18
   111.7975        5.9214216E-18
   111.9590        5.9149543E-18
   112.1205        5.9120129E-18
   112.2820        5.9133488E-18
   112.4435        5.9181295E-18
   112.6050        5.9243929E-18
   112.7665        5.9298489E-18
   112.9280        5.9326866E-18
   113.0895        5.9321125E-18
   113.2510        5.9285002E-18
   113.4125        5.9231707E-18
   113.5740        5.9179301E-18
   113.7355        5.9144977E-18
   113.8970        5.9139770E-18
   114.0585        5.9164929E-18
   114.2200        5.9210999E-18
   114.3815        5.9260323E-18
   114.5430        5.9292707E-18
   114.7045        5.9292823E-18
   114.8660        5.9256742E-18
   115.0275        5.9194815E-18
   115.1890        5.9128951E-18
   115.3505        5.9084659E-18
   115.5120        5.9080643E-18
   115.6735        5.9120377E-18
   115.8350        5.9189612E-18
   115.9965        5.9261527E-18
   116.1580        5.9307713E-18
   116.3195        5.9310322E-18
   116.4810        5.9269985E-18
   116.6425        5.9205709E-18
   116.8040        5.9146689E-18
   116.9655        5.9119620E-18
   117.1270        5.9137214E-18
   117.2885        5.9193045E-18
   117.4500        5.9264877E-18
   117.6115        5.9324744E-18
   117.7730        5.9350916E-18
   117.9345        5.9336540E-18
   118.0960        5.9291384E-18
   118.2575        5.9236546E-18
   118.4190        5.9195063E-18
   118.5805        5.9182738E-18
   118.7420        5.9202905E-18