  -27.90000       -3.5362993E-18
  -27.73850       -3.5427079E-18
  -27.57700       -3.5534744E-18
  -27.41550       -3.5653962E-18
  -27.25400       -3.5752913E-18
  -27.09250       -3.5811453E-18
  -26.93100       -3.5828001E-18
  -26.76950       -3.5819266E-18
  -26.60800       -3.5813012E-18
  -26.44650       -3.5836661E-18
  -26.28500       -3.5906161E-18
  -26.12350       -3.6019414E-18
  -25.96200       -3.6156743E-18
  -25.80050       -3.6288244E-18
  -25.63900       -3.6385144E-18
  -25.47750       -3.6430771E-18
  -25.31600       -3.6426941E-18
  -25.15450       -3.6393325E-18
  -24.99300       -3.6360031E-18
  -24.83150       -3.6356271E-18
  -24.67000       -3.6399405E-18
  -24.50850       -3.6488591E-18
  -24.34700       -3.6605315E-18
  -24.18550       -3.6720648E-18
  -24.02400       -3.6806299E-18
  -23.86250       -3.6845300E-18
  -23.70100       -3.6838274E-18
  -23.53950       -3.6802949E-18
  -23.37800       -3.6767227E-18
  -23.21650       -3.6758500E-18
  -23.05500       -3.6793316E-18
  -22.89350       -3.6871295E-18
  -22.73200       -3.6975528E-18
  -22.57050       -3.7079190E-18
  -22.40900       -3.7155816E-18
  -22.24750       -3.7189205E-18
  -22.08600       -3.7179312E-18
  -21.92450       -3.7142006E-18
  -21.76300       -3.7102748E-18
  -21.60150       -3.7086874E-18
  -21.44000       -3.7110035E-18
  -21.27850       -3.7172492E-18
  -21.11700       -3.7259242E-18
  -20.95550       -3.7345918E-18
  -20.79400       -3.7408093E-18
  -20.63250       -3.7430473E-18
  -20.47100       -3.7412544E-18
  -20.30950       -3.7368641E-18
  -20.14800       -3.7322526E-18
  -19.98650       -3.7298550E-18
  -19.82500       -3.7312711E-18
  -19.66350       -3.7366995E-18
  -19.50200       -3.7448849E-18
  -19.34050       -3.7536062E-18
  -19.17900       -3.7604995E-18
  -19.01750       -3.7639117E-18
  -18.85600       -3.7634770E-18
  -18.69450       -3.7602092E-18
  -18.53300       -3.7560878E-18
  -18.37150       -3.7533051E-18
  -18.21000       -3.7534590E-18
  -18.04850       -3.7569807E-18
  -17.88700       -3.7630100E-18
  -17.72550       -3.7697396E-18
  -17.56400       -3.7751109E-18
  -17.40250       -3.7775788E-18
  -17.24100       -3.7766854E-18
  -17.07950       -3.7732278E-18
  -16.91800       -3.7689649E-18
  -16.75650       -3.7659751E-18
  -16.59500       -3.7659064E-18
  -16.43350       -3.7693777E-18
  -16.27200       -3.7757523E-18
  -16.11050       -3.7833624E-18
  -15.94900       -3.7900944E-18
  -15.78750       -3.7941389E-18
  -15.62600       -3.7946274E-18
  -15.46450       -3.7919337E-18
  -15.30300       -3.7875426E-18
  -15.14150       -3.7835192E-18
  -14.98000       -3.7817800E-18
  -14.81850       -3.7834211E-18
  -14.65700       -3.7883420E-18
  -14.49550       -3.7952982E-18
  -14.33400       -3.8023681E-18
  -14.17250       -3.8076633E-18
  -14.01100       -3.8100200E-18
  -13.84950       -3.8094289E-18
  -13.68800       -3.8070326E-18
  -13.52650       -3.8046917E-18
  -13.36500       -3.8042773E-18
  -13.20350       -3.8069437E-18
  -13.04200       -3.8126549E-18
  -12.88050       -3.8201446E-18
  -12.71900       -3.8273353E-18
  -12.55750       -3.8320755E-18
  -12.39600       -3.8329250E-18
  -12.23450       -3.8297060E-18
  -12.07300       -3.8236085E-18
  -11.91150       -3.8168016E-18
  -11.75000       -3.8116917E-18
  -11.58850       -3.8100803E-18
  -11.42700       -3.8125400E-18
  -11.26550       -3.8182339E-18
  -11.10400       -3.8252471E-18
  -10.94250       -3.8313211E-18
  -10.78100       -3.8347142E-18
  -10.61950       -3.8348730E-18
  -10.45800       -3.8326574E-18
  -10.29650       -3.8300286E-18
  -10.13500       -3.8293057E-18
  -9.973500       -3.8322662E-18
  -9.812000       -3.8394271E-18
  -9.650500       -3.8497821E-18
  -9.489000       -3.8611124E-18
  -9.327500       -3.8707611E-18
  -9.166000       -3.8765927E-18
  -9.004500       -3.8777805E-18
  -8.843000       -3.8751153E-18
  -8.681500       -3.8707090E-18
  -8.520000       -3.8671984E-18
  -8.358500       -3.8667368E-18
  -8.197000       -3.8701622E-18
  -8.035500       -3.8766593E-18
  -7.874000       -3.8840547E-18
  -7.712500       -3.8896456E-18
  -7.551000       -3.8912445E-18
  -7.389500       -3.8880537E-18
  -7.228000       -3.8810177E-18
  -7.066500       -3.8725267E-18
  -6.905000       -3.8655565E-18
  -6.743500       -3.8625794E-18
  -6.582000       -3.8646536E-18
  -6.420500       -3.8710419E-18
  -6.259000       -3.8795035E-18
  -6.097500       -3.8871612E-18
  -5.936000       -3.8916002E-18
  -5.774500       -3.8917988E-18
  -5.613000       -3.8885111E-18
  -5.451500       -3.8839757E-18
  -5.290000       -3.8810367E-18
  -5.128500       -3.8820260E-18
  -4.967000       -3.8878295E-18
  -4.805500       -3.8975013E-18
  -4.644000       -3.9085806E-18
  -4.482500       -3.9179985E-18
  -4.321000       -3.9232341E-18
  -4.159500       -3.9232784E-18
  -3.998000       -3.9190328E-18
  -3.836500       -3.9129878E-18
  -3.675000       -3.9082940E-18
  -3.513500       -3.9075735E-18
  -3.352000       -3.9119311E-18
  -3.190500       -3.9205334E-18
  -3.029000       -3.9309339E-18
  -2.867500       -3.9400048E-18
  -2.706000       -3.9451304E-18
  -2.544500       -3.9451986E-18
  -2.383000       -3.9410065E-18
  -2.221500       -3.9349350E-18
  -2.060000       -3.9300033E-18
  -1.898500       -3.9286910E-18
  -1.737000       -3.9319691E-18
  -1.575500       -3.9389224E-18
  -1.414000       -3.9471119E-18
  -1.252500       -3.9535288E-18
  -1.091000       -3.9557725E-18
 -0.9295000       -3.9529965E-18
 -0.7680000       -3.9462562E-18
 -0.6065000       -3.9381320E-18
 -0.4450000       -3.9317673E-18
 -0.2835000       -3.9296973E-18
 -0.1220000       -3.9329121E-18
  3.9500002E-02   -3.9405069E-18
  0.2010000       -3.9500467E-18
  0.3625000       -3.9585005E-18
  0.5240000       -3.9633821E-18
  0.6855000       -3.9636700E-18
  0.8470000       -3.9601512E-18
   1.008500       -3.9550818E-18
   1.170000       -3.9512954E-18
   1.331500       -3.9511060E-18
   1.493000       -3.9554296E-18
   1.654500       -3.9634438E-18
   1.816000       -3.9729212E-18
   1.977500       -3.9810946E-18
   2.139000       -3.9857226E-18
   2.300500       -3.9859443E-18
   2.462000       -3.9826050E-18
   2.623500       -3.9779215E-18
   2.785000       -3.9746334E-18
   2.946500       -3.9749565E-18
   3.108000       -3.9797355E-18
   3.269500       -3.9881239E-18
   3.431000       -3.9978983E-18
   3.592500       -4.0062892E-18
   3.754000       -4.0110033E-18
   3.915500       -4.0110579E-18
   4.077000       -4.0071115E-18
   4.238500       -4.0011760E-18
   4.400000       -3.9958407E-18
   4.561500       -3.9932984E-18
   4.723000       -3.9945495E-18
   4.884500       -3.9990783E-18
   5.046000       -4.0050989E-18
   5.207500       -4.0102787E-18
   5.369000       -4.0126469E-18
   5.530500       -4.0113466E-18
   5.692000       -4.0069535E-18
   5.853500       -4.0012583E-18
   6.015000       -3.9965934E-18
   6.176500       -3.9949726E-18
   6.338000       -3.9973648E-18
   6.499500       -4.0033544E-18
   6.661000       -4.0113144E-18
   6.822500       -4.0190179E-18
   6.984000       -4.0244541E-18
   7.145500       -4.0265498E-18
   7.307000       -4.0255381E-18
   7.468500       -4.0228362E-18
   7.630000       -4.0204919E-18
   7.791500       -4.0204051E-18
   7.953000       -4.0236058E-18
   8.114500       -4.0298593E-18
   8.276000       -4.0377362E-18
   8.437500       -4.0451154E-18
   8.599000       -4.0499425E-18
   8.760500       -4.0509603E-18
   8.922000       -4.0481504E-18
   9.083500       -4.0427282E-18
   9.245000       -4.0366997E-18
   9.406500       -4.0321477E-18
   9.568000       -4.0305078E-18
   9.729500       -4.0320977E-18
   9.891000       -4.0360686E-18
   10.05250       -4.0407814E-18
   10.21400       -4.0444702E-18
   10.37550       -4.0459418E-18
   10.53700       -4.0450551E-18
   10.69850       -4.0428010E-18
   10.86000       -4.0409518E-18
   11.02150       -4.0414138E-18
   11.18300       -4.0455059E-18
   11.34450       -4.0534394E-18
   11.50600       -4.0641807E-18
   11.66750       -4.0757600E-18
   11.82900       -4.0859116E-18
   11.99050       -4.0928223E-18
   12.15200       -4.0957265E-18
   12.31350       -4.0951288E-18
   12.47500       -4.0925762E-18
   12.63650       -4.0900632E-18
   12.79800       -4.0892865E-18
   12.95950       -4.0910157E-18
   13.12100       -4.0948203E-18
   13.28250       -4.0992486E-18
   13.44400       -4.1023915E-18
   13.60550       -4.1026305E-18
   13.76700       -4.0992854E-18
   13.92850       -4.0929252E-18
   14.09000       -4.0852143E-18
   14.25150       -4.0783441E-18
   14.41300       -4.0742558E-18
   14.57450       -4.0739361E-18
   14.73600       -4.0770479E-18
   14.89750       -4.0820445E-18
   15.05900       -4.0867321E-18
   15.22050       -4.0890801E-18
   15.38200       -4.0879816E-18
   15.54350       -4.0836869E-18
   15.70500       -4.0777365E-18
   15.86650       -4.0724074E-18
   16.02800       -4.0698701E-18
   16.18950       -4.0713677E-18
   16.35100       -4.0767261E-18
   16.51250       -4.0843916E-18
   16.67400       -4.0919926E-18
   16.83550       -4.0972154E-18
   16.99700       -4.0986799E-18
   17.15850       -4.0964705E-18
   17.32000       -4.0921187E-18
   17.48150       -4.0880341E-18
   17.64300       -4.0865894E-18
   17.80450       -4.0892104E-18
   17.96600       -4.0958162E-18
   18.12750       -4.1048350E-18
   18.28900       -4.1137946E-18
   18.45050       -4.1202669E-18
   18.61200       -4.1228034E-18
   18.77350       -4.1215072E-18
   18.93500       -4.1180120E-18
   19.09650       -4.1148720E-18
   19.25800       -4.1145879E-18
   19.41950       -4.1186390E-18
   19.58100       -4.1268934E-18
   19.74250       -4.1376228E-18
   19.90400       -4.1481197E-18
   20.06550       -4.1557008E-18
   20.22700       -4.1587022E-18
   20.38850       -4.1571016E-18
   20.55000       -4.1525240E-18
   20.71150       -4.1476267E-18
   20.87300       -4.1450906E-18
   21.03450       -4.1466018E-18
   21.19600       -4.1522084E-18
   21.35750       -4.1603053E-18
   21.51900       -4.1682533E-18
   21.68050       -4.1734045E-18
   21.84200       -4.1741349E-18
   22.00350       -4.1704879E-18
   22.16500       -4.1641711E-18
   22.32650       -4.1579040E-18
   22.48800       -4.1543620E-18
   22.64950       -4.1551251E-18
   22.81100       -4.1600460E-18
   22.97250       -4.1672834E-18
   23.13400       -4.1740013E-18
   23.29550       -4.1774656E-18
   23.45700       -4.1761115E-18
   23.61850       -4.1701682E-18
   23.78000       -4.1615936E-18
   23.94150       -4.1533483E-18
   24.10300       -4.1482847E-18
   24.26450       -4.1480854E-18
   24.42600       -4.1526576E-18
   24.58750       -4.1602019E-18
   24.74900       -4.1679303E-18
   24.91050       -4.1731456E-18
   25.07200       -4.1742565E-18
   25.23350       -4.1713511E-18
   25.39500       -4.1661105E-18
   25.55650       -4.1611093E-18
   25.71800       -4.1587862E-18
   25.87950       -4.1604840E-18
   26.04100       -4.1659227E-18
   26.20250       -4.1733036E-18
   26.36400       -4.1799976E-18
   26.52550       -4.1835520E-18
   26.68700       -4.1826338E-18
   26.84850       -4.1775504E-18
   27.01000       -4.1701595E-18
   27.17150       -4.1631946E-18
   27.33300       -4.1592742E-18
   27.49450       -4.1599571E-18
   27.65600       -4.1652047E-18
   27.81750       -4.1734364E-18
   27.97900       -4.1821598E-18
   28.14050       -4.1889270E-18
   28.30200       -4.1922535E-18
   28.46350       -4.1921530E-18
   28.62500       -4.1900846E-18
   28.78650       -4.1883414E-18
   28.94800       -4.1891206E-18
   29.10950       -4.1936361E-18
   29.27100       -4.2016213E-18
   29.43250       -4.2114031E-18
   29.59400       -4.2205232E-18
   29.75550       -4.2266522E-18
   29.91700       -4.2284526E-18
   30.07850       -4.2260562E-18
   30.24000       -4.2209860E-18
   30.40150       -4.2155610E-18
   30.56300       -4.2120169E-18
   30.72450       -4.2116902E-18
   30.88600       -4.2145692E-18
   31.04750       -4.2193606E-18
   31.20900       -4.2240421E-18
   31.37050       -4.2266588E-18
   31.53200       -4.2260773E-18
   31.69350       -4.2224092E-18
   31.85500       -4.2169639E-18
   32.01650       -4.2117605E-18
   32.17800       -4.2087946E-18
   32.33950       -4.2093269E-18
   32.50100       -4.2134583E-18
   32.66250       -4.2201245E-18
   32.82400       -4.2275046E-18
   32.98550       -4.2336766E-18
   33.14700       -4.2372873E-18
   33.30850       -4.2379933E-18
   33.47000       -4.2365242E-18
   33.63150       -4.2343578E-18
   33.79300       -4.2331257E-18
   33.95450       -4.2339757E-18
   34.11600       -4.2371280E-18
   34.27750       -4.2417780E-18
   34.43900       -4.2463904E-18
   34.60050       -4.2492599E-18
   34.76200       -4.2491553E-18
   34.92350       -4.2457799E-18
   35.08500       -4.2399140E-18
   35.24650       -4.2331613E-18
   35.40800       -4.2274033E-18
   35.56950       -4.2241624E-18
   35.73100       -4.2240921E-18
   35.89250       -4.2267895E-18
   36.05400       -4.2309813E-18
   36.21550       -4.2350047E-18
   36.37700       -4.2374143E-18
   36.53850       -4.2374850E-18
   36.70000       -4.2354447E-18
   36.86150       -4.2323631E-18
   37.02300       -4.2297405E-18
   37.18450       -4.2289588E-18
   37.34600       -4.2307832E-18
   37.50750       -4.2350895E-18
   37.66900       -4.2409194E-18
   37.83050       -4.2468210E-18
   37.99200       -4.2513721E-18
   38.15350       -4.2536936E-18
   38.31500       -4.2537718E-18
   38.47650       -4.2524805E-18
   38.63800       -4.2512852E-18
   38.79950       -4.2517191E-18
   38.96100       -4.2548140E-18
   39.12250       -4.2606895E-18
   39.28400       -4.2684484E-18
   39.44550       -4.2764332E-18
   39.60700       -4.2827781E-18
   39.76850       -4.2860516E-18
   39.93000       -4.2857750E-18
   40.09150       -4.2826176E-18
   40.25300       -4.2781773E-18
   40.41450       -4.2744260E-18
   40.57600       -4.2730004E-18
   40.73750       -4.2746097E-18
   40.89900       -4.2787758E-18
   41.06050       -4.2840242E-18
   41.22200       -4.2884583E-18
   41.38350       -4.2904953E-18
   41.54500       -4.2894989E-18
   41.70650       -4.2860483E-18
   41.86800       -4.2817416E-18
   42.02950       -4.2785909E-18
   42.19100       -4.2782439E-18
   42.35250       -4.2813198E-18
   42.51400       -4.2871315E-18
   42.67550       -4.2938975E-18
   42.83700       -4.2993812E-18
   42.99850       -4.3017247E-18
   43.16000       -4.3001518E-18
   43.32150       -4.2952871E-18
   43.48300       -4.2889497E-18
   43.64450       -4.2834990E-18
   43.80600       -4.2809757E-18
   43.96750       -4.2823463E-18
   44.12900       -4.2871456E-18
   44.29050       -4.2936493E-18
   44.45200       -4.2995219E-18
   44.61350       -4.3027040E-18
   44.77500       -4.3021995E-18
   44.93650       -4.2984676E-18
   45.09800       -4.2932651E-18
   45.25950       -4.2889877E-18
   45.42100       -4.2877548E-18
   45.58250       -4.2905867E-18
   45.74400       -4.2969849E-18
   45.90550       -4.3050876E-18
   46.06700       -4.3123552E-18
   46.22850       -4.3165279E-18
   46.39000       -4.3164956E-18
   46.55150       -4.3127328E-18
   46.71300       -4.3071319E-18
   46.87450       -4.3022784E-18
   47.03600       -4.3004512E-18
   47.19750       -4.3027272E-18
   47.35900       -4.3085435E-18
   47.52050       -4.3158876E-18
   47.68200       -4.3220621E-18
   47.84350       -4.3247153E-18
   48.00500       -4.3227644E-18
   48.16650       -4.3168257E-18
   48.32800       -4.3089985E-18
   48.48950       -4.3020787E-18
   48.65100       -4.2985061E-18
   48.81250       -4.2994586E-18
   48.97400       -4.3044308E-18
   49.13550       -4.3114655E-18
   49.29700       -4.3179378E-18
   49.45850       -4.3215803E-18
   49.62000       -4.3213627E-18
   49.78150       -4.3178741E-18
   49.94300       -4.3130789E-18
   50.10450       -4.3095312E-18
   50.26600       -4.3093715E-18
   50.42750       -4.3134814E-18
   50.58900       -4.3211241E-18
   50.75050       -4.3302003E-18
   50.91200       -4.3380226E-18
   51.07350       -4.3423049E-18
   51.23500       -4.3420046E-18
   51.39650       -4.3376996E-18
   51.55800       -4.3313580E-18
   51.71950       -4.3256020E-18
   51.88100       -4.3227330E-18
   52.04250       -4.3238960E-18
   52.20400       -4.3286870E-18
   52.36550       -4.3353487E-18
   52.52700       -4.3414670E-18
   52.68850       -4.3449064E-18
   52.85000       -4.3446235E-18
   53.01150       -4.3410587E-18
   53.17300       -4.3359497E-18
   53.33450       -4.3316512E-18
   53.49600       -4.3302144E-18
   53.65750       -4.3325959E-18
   53.81900       -4.3382836E-18
   53.98050       -4.3454986E-18
   54.14200       -4.3518791E-18
   54.30350       -4.3553789E-18
   54.46500       -4.3550414E-18
   54.62650       -4.3513505E-18
   54.78800       -4.3460392E-18
   54.94950       -4.3414219E-18
   55.11100       -4.3395330E-18
   55.27250       -4.3413797E-18
   55.43400       -4.3466004E-18
   55.59550       -4.3536402E-18
   55.75700       -4.3603556E-18
   55.91850       -4.3648133E-18
   56.08000       -4.3659751E-18
   56.24150       -4.3640320E-18
   56.40300       -4.3602750E-18
   56.56450       -4.3565762E-18
   56.72600       -4.3546799E-18
   56.88750       -4.3555663E-18
   57.04900       -4.3591215E-18
   57.21050       -4.3642090E-18
   57.37200       -4.3691146E-18
   57.53350       -4.3721814E-18
   57.69500       -4.3724114E-18
   57.85650       -4.3698198E-18
   58.01800       -4.3654217E-18
   58.17950       -4.3608710E-18
   58.34100       -4.3578695E-18
   58.50250       -4.3575660E-18
   58.66400       -4.3601492E-18
   58.82550       -4.3647868E-18
   58.98700       -4.3699273E-18
   59.14850       -4.3738544E-18
   59.31000       -4.3753011E-18
   59.47150       -4.3738991E-18
   59.63300       -4.3703083E-18
   59.79450       -4.3659817E-18
   59.95600       -4.3626461E-18
   60.11750       -4.3616919E-18
   60.27900       -4.3636755E-18
   60.44050       -4.3681340E-18
   60.60200       -4.3737605E-18
   60.76350       -4.3788812E-18
   60.92500       -4.3820575E-18
   61.08650       -4.3825907E-18
   61.24800       -4.3807605E-18
   61.40950       -4.3777066E-18
   61.57100       -4.3750075E-18
   61.73250       -4.3740996E-18
   61.89400       -4.3757519E-18
   62.05550       -4.3797725E-18
   62.21700       -4.3850648E-18
   62.37850       -4.3900129E-18
   62.54000       -4.3930603E-18
   62.70150       -4.3932770E-18
   62.86300       -4.3907173E-18
   63.02450       -4.3864362E-18
   63.18600       -4.3821456E-18
   63.34750       -4.3796252E-18
   63.50900       -4.3800839E-18
   63.67050       -4.3837107E-18
   63.83200       -4.3895704E-18
   63.99350       -4.3959124E-18
   64.15500       -4.4007812E-18
   64.31650       -4.4027139E-18
   64.47800       -4.4012725E-18
   64.63950       -4.3972078E-18
   64.80100       -4.3921888E-18
   64.96250       -4.3881824E-18
   65.12400       -4.3867125E-18
   65.28550       -4.3882779E-18
   65.44700       -4.3921541E-18
   65.60850       -4.3966668E-18
   65.77000       -4.3998403E-18
   65.93150       -4.4001844E-18
   66.09300       -4.3973079E-18
   66.25450       -4.3921280E-18
   66.41600       -4.3865781E-18
   66.57750       -4.3829170E-18
   66.73900       -4.3828934E-18
   66.90050       -4.3870723E-18
   67.06200       -4.3945889E-18
   67.22350       -4.4034265E-18
   67.38500       -4.4111259E-18
   67.54650       -4.4156684E-18
   67.70800       -4.4161936E-18
   67.86950       -4.4132915E-18
   68.03100       -4.4087523E-18
   68.19250       -4.4048716E-18
   68.35400       -4.4035651E-18
   68.51550       -4.4056301E-18
   68.67700       -4.4104393E-18
   68.83850       -4.4161754E-18
   69.00000       -4.4205363E-18
   69.16150       -4.4216381E-18
   69.32300       -4.4187715E-18
   69.48450       -4.4127182E-18
   69.64600       -4.4054986E-18
   69.80750       -4.3996451E-18
   69.96900       -4.3972694E-18
   70.13050       -4.3992815E-18
   70.29200       -4.4050486E-18
   70.45350       -4.4126384E-18
   70.61500       -4.4195495E-18
   70.77650       -4.4236614E-18
   70.93800       -4.4240357E-18
   71.09950       -4.4212696E-18
   71.26100       -4.4172590E-18
   71.42250       -4.4144677E-18
   71.58400       -4.4149760E-18
   71.74550       -4.4196744E-18
   71.90700       -4.4278966E-18
   72.06850       -4.4376420E-18
   72.23000       -4.4462918E-18
   72.39150       -4.4515618E-18
   72.55300       -4.4523261E-18
   72.71450       -4.4490079E-18
   72.87600       -4.4433893E-18
   73.03750       -4.4379183E-18
   73.19900       -4.4347795E-18
   73.36050       -4.4350773E-18
   73.52200       -4.4384485E-18
   73.68350       -4.4432362E-18
   73.84500       -4.4471612E-18
   74.00650       -4.4482287E-18
   74.16800       -4.4455292E-18
   74.32950       -4.4396115E-18
   74.49100       -4.4323017E-18
   74.65250       -4.4260193E-18
   74.81400       -4.4228715E-18
   74.97550       -4.4238612E-18
   75.13700       -4.4285174E-18
   75.29850       -4.4350761E-18
   75.46000       -4.4411402E-18
   75.62150       -4.4445626E-18
   75.78300       -4.4442169E-18
   75.94450       -4.4403833E-18
   76.10600       -4.4346000E-18
   76.26750       -4.4290683E-18
   76.42900       -4.4258336E-18
   76.59050       -4.4260549E-18
   76.75200       -4.4296250E-18
   76.91350       -4.4352634E-18
   77.07500       -4.4410260E-18
   77.23650       -4.4450316E-18
   77.39800       -4.4461429E-18
   77.55950       -4.4443583E-18
   77.72100       -4.4407894E-18
   77.88250       -4.4372383E-18
   78.04400       -4.4355368E-18
   78.20550       -4.4368731E-18
   78.36700       -4.4413544E-18
   78.52850       -4.4479470E-18
   78.69000       -4.4548296E-18
   78.85150       -4.4600185E-18
   79.01300       -4.4620653E-18
   79.17450       -4.4605772E-18
   79.33600       -4.4563657E-18
   79.49750       -4.4511743E-18
   79.65900       -4.4470681E-18
   79.82050       -4.4456996E-18
   79.98200       -4.4477179E-18
   80.14350       -4.4525482E-18
   80.30500       -4.4586160E-18
   80.46650       -4.4639401E-18
   80.62800       -4.4668700E-18
   80.78950       -4.4666909E-18
   80.95100       -4.4638831E-18
   81.11250       -4.4599291E-18
   81.27400       -4.4567515E-18
   81.43550       -4.4559897E-18
   81.59700       -4.4583889E-18
   81.75850       -4.4635253E-18
   81.92000       -4.4699591E-18
   82.08150       -4.4757556E-18
   82.24300       -4.4791706E-18
   82.40450       -4.4792624E-18
   82.56600       -4.4762188E-18
   82.72750       -4.4712876E-18
   82.88900       -4.4663456E-18
   83.05050       -4.4632495E-18
   83.21200       -4.4631887E-18
   83.37350       -4.4662658E-18
   83.53500       -4.4714509E-18
   83.69650       -4.4769289E-18
   83.85800       -4.4807340E-18
   84.01950       -4.4814565E-18
   84.18100       -4.4787880E-18
   84.34250       -4.4736922E-18
   84.50400       -4.4681269E-18
   84.66550       -4.4643856E-18
   84.82700       -4.4642714E-18
   84.98850       -4.4684119E-18
   85.15000       -4.4759719E-18
   85.31150       -4.4849009E-18
   85.47300       -4.4926437E-18
   85.63450       -4.4970683E-18
   85.79600       -4.4972553E-18
   85.95750       -4.4938564E-18
   86.11900       -4.4888507E-18
   86.28050       -4.4847868E-18
   86.44200       -4.4837830E-18
   86.60350       -4.4866740E-18
   86.76500       -4.4926421E-18
   86.92650       -4.4994895E-18
   87.08800       -4.5044563E-18
   87.24950       -4.5052723E-18
   87.41100       -4.5010475E-18
   87.57250       -4.4926574E-18
   87.73400       -4.4824785E-18
   87.89550       -4.4735565E-18
   88.05700       -4.4685281E-18
   88.21850       -4.4686720E-18
   88.38000       -4.4734556E-18
   88.54150       -4.4807369E-18
   88.70300       -4.4875619E-18
   88.86450       -4.4912541E-18
   89.02600       -4.4904099E-18
   89.18750       -4.4854336E-18
   89.34900       -4.4784071E-18
   89.51050       -4.4723298E-18
   89.67200       -4.4699922E-18
   89.83350       -4.4728890E-18
   89.99500       -4.4805814E-18
   90.15650       -4.4907747E-18
   90.31800       -4.5001161E-18
   90.47950       -4.5054319E-18
   90.64100       -4.5049580E-18
   90.80250       -4.4990759E-18
   90.96400       -4.4902552E-18
   91.12550       -4.4821832E-18
   91.28700       -4.4783889E-18
   91.44850       -4.4808754E-18
   91.61000       -4.4892970E-18
   91.77150       -4.5010367E-18
   91.93300       -4.5121714E-18
   92.09450       -4.5189816E-18
   92.25600       -4.5194088E-18
   92.41750       -4.5138820E-18
   92.57900       -4.5051788E-18
   92.74050       -4.4973591E-18
   92.90200       -4.4941802E-18
   93.06350       -4.4976196E-18
   93.22500       -4.5070789E-18
   93.38650       -4.5195908E-18
   93.54800       -4.5309488E-18
   93.70950       -4.5373247E-18
   93.87100       -4.5367374E-18
   94.03250       -4.5298106E-18
   94.19400       -4.5195213E-18
   94.35550       -4.5100579E-18
   94.51700       -4.5052235E-18
   94.67850       -4.5069978E-18
   94.84000       -4.5147985E-18
   95.00150       -4.5257144E-18
   95.16300       -4.5356199E-18
   95.32450       -4.5407521E-18
   95.48600       -4.5391486E-18
   95.64750       -4.5314145E-18
   95.80900       -4.5205119E-18
   95.97050       -4.5106610E-18
   96.13200       -4.5057483E-18
   96.29350       -4.5078411E-18
   96.45500       -4.5163731E-18
   96.61650       -4.5283101E-18
   96.77800       -4.5392628E-18
   96.93950       -4.5451337E-18
   97.10100       -4.5436833E-18
   97.26250       -4.5354086E-18
   97.42400       -4.5233822E-18
   97.58550       -4.5120961E-18
   97.74700       -4.5057438E-18
   97.90850       -4.5066082E-18
   98.07000       -4.5141823E-18
   98.23150       -4.5253740E-18
   98.39300       -4.5357245E-18
   98.55450       -4.5411628E-18
   98.71600       -4.5396106E-18
   98.87750       -4.5318095E-18
   99.03900       -4.5210293E-18
   99.20050       -4.5117872E-18
   99.36200       -4.5080797E-18
   99.52350       -4.5118318E-18
   99.68500       -4.5221559E-18
   99.84650       -4.5357067E-18
   100.0080       -4.5479672E-18
   100.1695       -4.5549523E-18
   100.3310       -4.5546860E-18
   100.4925       -4.5478820E-18
   100.6540       -4.5376072E-18
   100.8155       -4.5280723E-18
   100.9770       -4.5230290E-18
   101.1385       -4.5243860E-18
   101.3000       -4.5315531E-18
   101.4615       -4.5417224E-18
   101.6230       -4.5509678E-18
   101.7845       -4.5557316E-18
   101.9460       -4.5541533E-18
   102.1075       -4.5467575E-18
   102.2690       -4.5362614E-18
   102.4305       -4.5265738E-18
   102.5920       -4.5213572E-18
   102.7535       -4.5226774E-18
   102.9150       -4.5302354E-18
   103.0765       -4.5414730E-18
   103.2380       -4.5525097E-18
   103.3995       -4.5595693E-18
   103.5610       -4.5603778E-18
   103.7225       -4.5550069E-18
   103.8840       -4.5458418E-18
   104.0455       -4.5366779E-18
   104.2070       -4.5312809E-18
   104.3685       -4.5319493E-18
   104.5300       -4.5386399E-18
   104.6915       -4.5489871E-18
   104.8530       -4.5592206E-18
   105.0145       -4.5656106E-18
   105.1760       -4.5659001E-18
   105.3375       -4.5601644E-18
   105.4990       -4.5507784E-18
   105.6605       -4.5415098E-18
   105.8220       -4.5360976E-18
   105.9835       -4.5368483E-18
   106.1450       -4.5437970E-18
   106.3065       -4.5547199E-18
   106.4680       -4.5659940E-18
   106.6295       -4.5739403E-18
   106.7910       -4.5761670E-18
   106.9525       -4.5723992E-18
   107.1140       -4.5645257E-18
   107.2755       -4.5558602E-18
   107.4370       -4.5499037E-18
   107.5985       -4.5490608E-18
   107.7600       -4.5537658E-18
   107.9215       -4.5623353E-18
   108.0830       -4.5715919E-18
   108.2445       -4.5780245E-18
   108.4060       -4.5790824E-18
   108.5675       -4.5741326E-18
   108.7290       -4.5647321E-18
   108.8905       -4.5541132E-18
   109.0520       -4.5460461E-18
   109.2135       -4.5434810E-18
   109.3750       -4.5474626E-18
   109.5365       -4.5567225E-18
   109.6980       -4.5681293E-18
   109.8595       -4.5778425E-18
   110.0210       -4.5827485E-18
   110.1825       -4.5816380E-18
   110.3440       -4.5756670E-18
   110.5055       -4.5679143E-18
   110.6670       -4.5621877E-18
   110.8285       -4.5615334E-18
   110.9900       -4.5670217E-18
   111.1515       -4.5772817E-18
   111.3130       -4.5889834E-18
   111.4745       -4.5980886E-18
   111.6360       -4.6013803E-18
   111.7975       -4.5976936E-18
   111.9590       -4.5883638E-18
   112.1205       -4.5767349E-18
   112.2820       -4.5669183E-18
   112.4435       -4.5622762E-18
   112.6050       -4.5641953E-18
   112.7665       -4.5716101E-18
   112.9280       -4.5814358E-18
   113.0895       -4.5897498E-18
   113.2510       -4.5932694E-18
   113.4125       -4.5905803E-18
   113.5740       -4.5826658E-18
   113.7355       -4.5725448E-18
   113.8970       -4.5641527E-18
   114.0585       -4.5608741E-18
   114.2200       -4.5642610E-18
   114.3815       -4.5734084E-18
   114.5430       -4.5852325E-18
   114.7045       -4.5955719E-18
   114.8660       -4.6007140E-18
   115.0275       -4.5987991E-18
   115.1890       -4.5905509E-18
   115.3505       -4.5790510E-18
   115.5120       -4.5686087E-18
   115.6735       -4.5631452E-18
   115.8350       -4.5646883E-18
   115.9965       -4.5725713E-18
   116.1580       -4.5836625E-18
   116.3195       -4.5935573E-18
   116.4810       -4.5982937E-18
   116.6425       -4.5959222E-18
   116.8040       -4.5873063E-18
   116.9655       -4.5758225E-18
   117.1270       -4.5660630E-18
   117.2885       -4.5620487E-18
   117.4500       -4.5656466E-18
   117.6115       -4.5758155E-18
   117.7730       -4.5889908E-18
   117.9345       -4.6004465E-18
   118.0960       -4.6061205E-18
   118.2575       -4.6041824E-18
   118.4190       -4.5957348E-18
   118.5805       -4.5843739E-18
   118.7420       -4.5747931E-18