  -27.90000        8.8549114E-18
  -27.73850        8.8839735E-18
  -27.57700        8.9327739E-18
  -27.41550        8.9867681E-18
  -27.25400        9.0315235E-18
  -27.09250        9.0579313E-18
  -26.93100        9.0653230E-18
  -26.76950        9.0613236E-18
  -26.60800        9.0585393E-18
  -26.44650        9.0693720E-18
  -26.28500        9.1009910E-18
  -26.12350        9.1523788E-18
  -25.96200        9.2145877E-18
  -25.80050        9.2740885E-18
  -25.63900        9.3179034E-18
  -25.47750        9.3385515E-18
  -25.31600        9.3368979E-18
  -25.15450        9.3218424E-18
  -24.99300        9.3069573E-18
  -24.83150        9.3053832E-18
  -24.67000        9.3249204E-18
  -24.50850        9.3651776E-18
  -24.34700        9.4178351E-18
  -24.18550        9.4698871E-18
  -24.02400        9.5086082E-18
  -23.86250        9.5263521E-18
  -23.70100        9.5233610E-18
  -23.53950        9.5075676E-18
  -23.37800        9.4915005E-18
  -23.21650        9.4874944E-18
  -23.05500        9.5030521E-18
  -22.89350        9.5380906E-18
  -22.73200        9.5850852E-18
  -22.57050        9.6320112E-18
  -22.40900        9.6669240E-18
  -22.24750        9.6824386E-18
  -22.08600        9.6784119E-18
  -21.92450        9.6618633E-18
  -21.76300        9.6442104E-18
  -21.60150        9.6368957E-18
  -21.44000        9.6470874E-18
  -21.27850        9.6750543E-18
  -21.11700        9.7141758E-18
  -20.95550        9.7535240E-18
  -20.79400        9.7820361E-18
  -20.63250        9.7926654E-18
  -20.47100        9.7849883E-18
  -20.30950        9.7653179E-18
  -20.14800        9.7443233E-18
  -19.98650        9.7330687E-18
  -19.82500        9.7389714E-18
  -19.66350        9.7631474E-18
  -19.50200        9.8001042E-18
  -19.34050        9.8398453E-18
  -19.17900        9.8715627E-18
  -19.01750        9.8875496E-18
  -18.85600        9.8859002E-18
  -18.69450        9.8710325E-18
  -18.53300        9.8519064E-18
  -18.37150        9.8386227E-18
  -18.21000        9.8386930E-18
  -18.04850        9.8543408E-18
  -17.88700        9.8818015E-18
  -17.72550        9.9128448E-18
  -17.56400        9.9379125E-18
  -17.40250        9.9497130E-18
  -17.24100        9.9459303E-18
  -17.07950        9.9300849E-18
  -16.91800        9.9102433E-18
  -16.75650        9.8960654E-18
  -16.59500        9.8952779E-18
  -16.43350        9.9108629E-18
  -16.27200        9.9399589E-18
  -16.11050        9.9748742E-18
  -15.94900        1.0005832E-17
  -15.78750        1.0024450E-17
  -15.62600        1.0026709E-17
  -15.46450        1.0014357E-17
  -15.30300        9.9942592E-18
  -15.14150        9.9759297E-18
  -14.98000        9.9681575E-18
  -14.81850        9.9759090E-18
  -14.65700        9.9986383E-18
  -14.49550        1.0030578E-17
  -14.33400        1.0062907E-17
  -14.17250        1.0086995E-17
  -14.01100        1.0097567E-17
  -13.84950        1.0094612E-17
  -13.68800        1.0083354E-17
  -13.52650        1.0072283E-17
  -13.36500        1.0069938E-17
  -13.20350        1.0081627E-17
  -13.04200        1.0107278E-17
  -12.88050        1.0141249E-17
  -12.71900        1.0174197E-17
  -12.55750        1.0196371E-17
  -12.39600        1.0201159E-17
  -12.23450        1.0187590E-17
  -12.07300        1.0160855E-17
  -11.91150        1.0130621E-17
  -11.75000        1.0107706E-17
  -11.58850        1.0100305E-17
  -11.42700        1.0111135E-17
  -11.26550        1.0136566E-17
  -11.10400        1.0168071E-17
  -10.94250        1.0195493E-17
  -10.78100        1.0210932E-17
  -10.61950        1.0211799E-17
  -10.45800        1.0201889E-17
  -10.29650        1.0190017E-17
  -10.13500        1.0186696E-17
  -9.973500        1.0200071E-17
  -9.812000        1.0232638E-17
  -9.650500        1.0280003E-17
  -9.489000        1.0332210E-17
  -9.327500        1.0377196E-17
  -9.166000        1.0405115E-17
  -9.004500        1.0411921E-17
  -8.843000        1.0400851E-17
  -8.681500        1.0381194E-17
  -8.520000        1.0364779E-17
  -8.358500        1.0361471E-17
  -8.197000        1.0375369E-17
  -8.035500        1.0403170E-17
  -7.874000        1.0435352E-17
  -7.712500        1.0459790E-17
  -7.551000        1.0466446E-17
  -7.389500        1.0451369E-17
  -7.228000        1.0418461E-17
  -7.066500        1.0378291E-17
  -6.905000        1.0344371E-17
  -6.743500        1.0328256E-17
  -6.582000        1.0335335E-17
  -6.420500        1.0362903E-17
  -6.259000        1.0401278E-17
  -6.097500        1.0437544E-17
  -5.936000        1.0460531E-17
  -5.774500        1.0465090E-17
  -5.613000        1.0454057E-17
  -5.451500        1.0437099E-17
  -5.290000        1.0426899E-17
  -5.128500        1.0434097E-17
  -4.967000        1.0462974E-17
  -4.805500        1.0509528E-17
  -4.644000        1.0562730E-17
  -4.482500        1.0608514E-17
  -4.321000        1.0635001E-17
  -4.159500        1.0636966E-17
  -3.998000        1.0617842E-17
  -3.836500        1.0588474E-17
  -3.675000        1.0563083E-17
  -3.513500        1.0553958E-17
  -3.352000        1.0566896E-17
  -3.190500        1.0599117E-17
  -3.029000        1.0640432E-17
  -2.867500        1.0677231E-17
  -2.706000        1.0697728E-17
  -2.544500        1.0696486E-17
  -2.383000        1.0676467E-17
  -2.221500        1.0647852E-17
  -2.060000        1.0624084E-17
  -1.898500        1.0616665E-17
  -1.737000        1.0630709E-17
  -1.575500        1.0662963E-17
  -1.414000        1.0703042E-17
  -1.252500        1.0737422E-17
  -1.091000        1.0754637E-17
 -0.9295000        1.0749707E-17
 -0.7680000        1.0726098E-17
 -0.6065000        1.0694468E-17
 -0.4450000        1.0668674E-17
 -0.2835000        1.0660580E-17
 -0.1220000        1.0675623E-17
  3.9500002E-02    1.0710813E-17
  0.2010000        1.0755915E-17
  0.3625000        1.0797335E-17
  0.5240000        1.0823221E-17
  0.6855000        1.0827836E-17
  0.8470000        1.0813568E-17
   1.008500        1.0789845E-17
   1.170000        1.0769406E-17
   1.331500        1.0763384E-17
   1.493000        1.0777077E-17
   1.654500        1.0808004E-17
   1.816000        1.0846962E-17
   1.977500        1.0881633E-17
   2.139000        1.0901343E-17
   2.300500        1.0901163E-17
   2.462000        1.0883775E-17
   2.623500        1.0858459E-17
   2.785000        1.0837564E-17
   2.946500        1.0831878E-17
   3.108000        1.0846593E-17
   3.269500        1.0879410E-17
   3.431000        1.0921450E-17
   3.592500        1.0960586E-17
   3.754000        1.0985928E-17
   3.915500        1.0991771E-17
   4.077000        1.0979548E-17
   4.238500        1.0957103E-17
   4.400000        1.0935622E-17
   4.561500        1.0925388E-17
   4.723000        1.0931984E-17
   4.884500        1.0954326E-17
   5.046000        1.0985222E-17
   5.207500        1.1014205E-17
   5.369000        1.1031525E-17
   5.530500        1.1031817E-17
   5.692000        1.1016076E-17
   5.853500        1.0991263E-17
   6.015000        1.0967715E-17
   6.176500        1.0955349E-17
   6.338000        1.0960096E-17
   6.499500        1.0981843E-17
   6.661000        1.1014613E-17
   6.822500        1.1048881E-17
   6.984000        1.1075126E-17
   7.145500        1.1087313E-17
   7.307000        1.1085023E-17
   7.468500        1.1073493E-17
   7.630000        1.1061570E-17
   7.791500        1.1058360E-17
   7.953000        1.1069815E-17
   8.114500        1.1096467E-17
   8.276000        1.1133158E-17
   8.437500        1.1170802E-17
   8.599000        1.1199562E-17
   8.760500        1.1212268E-17
   8.922000        1.1206869E-17
   9.083500        1.1187061E-17
   9.245000        1.1160896E-17
   9.406500        1.1137883E-17
   9.568000        1.1125665E-17
   9.729500        1.1127440E-17
   9.891000        1.1141048E-17
   10.05250        1.1160040E-17
   10.21400        1.1176291E-17
   10.37550        1.1183235E-17
   10.53700        1.1178488E-17
   10.69850        1.1164944E-17
   10.86000        1.1149879E-17
   11.02150        1.1142416E-17
   11.18300        1.1150195E-17
   11.34450        1.1176497E-17
   11.50600        1.1218825E-17
   11.66750        1.1269514E-17
   11.82900        1.1318176E-17
   11.99050        1.1355144E-17
   12.15200        1.1374691E-17
   12.31350        1.1376881E-17
   12.47500        1.1367365E-17
   12.63650        1.1355190E-17
   12.79800        1.1349385E-17
   12.95950        1.1355582E-17
   13.12100        1.1373901E-17
   13.28250        1.1398900E-17
   13.44400        1.1421643E-17
   13.60550        1.1433127E-17
   13.76700        1.1427814E-17
   13.92850        1.1405936E-17
   14.09000        1.1373668E-17
   14.25150        1.1341066E-17
   14.41300        1.1318490E-17
   14.57450        1.1312829E-17
   14.73600        1.1324936E-17
   14.89750        1.1349279E-17
   15.05900        1.1375949E-17
   15.22050        1.1394364E-17
   15.38200        1.1397252E-17
   15.54350        1.1383464E-17
   15.70500        1.1358520E-17
   15.86650        1.1332651E-17
   16.02800        1.1317024E-17
   16.18950        1.1319561E-17
   16.35100        1.1341889E-17
   16.51250        1.1378610E-17
   16.67400        1.1419197E-17
   16.83550        1.1451821E-17
   16.99700        1.1467729E-17
   17.15850        1.1464500E-17
   17.32000        1.1446960E-17
   17.48150        1.1425369E-17
   17.64300        1.1411532E-17
   17.80450        1.1414298E-17
   17.96600        1.1436138E-17
   18.12750        1.1472126E-17
   18.28900        1.1511754E-17
   18.45050        1.1542908E-17
   18.61200        1.1556522E-17
   18.77350        1.1550130E-17
   18.93500        1.1528937E-17
   19.09650        1.1503951E-17
   19.25800        1.1487860E-17
   19.41950        1.1490199E-17
   19.58100        1.1513648E-17
   19.74250        1.1552908E-17
   19.90400        1.1596598E-17
   20.06550        1.1631499E-17
   20.22700        1.1647534E-17
   20.38850        1.1641594E-17
   20.55000        1.1618741E-17
   20.71150        1.1590317E-17
   20.87300        1.1569661E-17
   21.03450        1.1567072E-17
   21.19600        1.1585927E-17
   21.35750        1.1621434E-17
   21.51900        1.1662506E-17
   21.68050        1.1696029E-17
   21.84200        1.1711890E-17
   22.00350        1.1706848E-17
   22.16500        1.1685758E-17
   22.32650        1.1659672E-17
   22.48800        1.1641569E-17
   22.64950        1.1641311E-17
   22.81100        1.1661804E-17
   22.97250        1.1697809E-17
   23.13400        1.1737875E-17
   23.29550        1.1768680E-17
   23.45700        1.1780097E-17
   23.61850        1.1769094E-17
   23.78000        1.1740930E-17
   23.94150        1.1707235E-17
   24.10300        1.1681665E-17
   24.26450        1.1674806E-17
   24.42600        1.1690246E-17
   24.58750        1.1723311E-17
   24.74900        1.1762907E-17
   24.91050        1.1795767E-17
   25.07200        1.1811441E-17
   25.23350        1.1806161E-17
   25.39500        1.1784092E-17
   25.55650        1.1755538E-17
   25.71800        1.1732830E-17
   25.87950        1.1725500E-17
   26.04100        1.1736592E-17
   26.20250        1.1761535E-17
   26.36400        1.1789967E-17
   26.52550        1.1809811E-17
   26.68700        1.1812003E-17
   26.84850        1.1794074E-17
   27.01000        1.1761231E-17
   27.17150        1.1724530E-17
   27.33300        1.1696872E-17
   27.49450        1.1688336E-17
   27.65600        1.1702598E-17
   27.81750        1.1735776E-17
   27.97900        1.1778055E-17
   28.14050        1.1817454E-17
   28.30200        1.1844270E-17
   28.46350        1.1854536E-17
   28.62500        1.1851224E-17
   28.78650        1.1842804E-17
   28.94800        1.1839761E-17
   29.10950        1.1850433E-17
   29.27100        1.1877730E-17
   29.43250        1.1917964E-17
   29.59400        1.1962178E-17
   29.75550        1.1999431E-17
   29.91700        1.2020790E-17
   30.07850        1.2022530E-17
   30.24000        1.2007383E-17
   30.40150        1.1983411E-17
   30.56300        1.1960961E-17
   30.72450        1.1948871E-17
   30.88600        1.1951318E-17
   31.04750        1.1966459E-17
   31.20900        1.1987326E-17
   31.37050        1.2004592E-17
   31.53200        1.2010155E-17
   31.69350        1.2000232E-17
   31.85500        1.1976808E-17
   32.01650        1.1946972E-17
   32.17800        1.1920384E-17
   32.33950        1.1905832E-17
   32.50100        1.1908147E-17
   32.66250        1.1926562E-17
   32.82400        1.1955099E-17
   32.98550        1.1984793E-17
   33.14700        1.2006925E-17
   33.30850        1.2016076E-17
   33.47000        1.2011911E-17
   33.63150        1.1999096E-17
   33.79300        1.1985386E-17
   33.95450        1.1978646E-17
   34.11600        1.1983883E-17
   34.27750        1.2001374E-17
   34.43900        1.2026559E-17
   34.60050        1.2051716E-17
   34.76200        1.2068793E-17
   34.92350        1.2072378E-17
   35.08500        1.2061731E-17
   35.24650        1.2041142E-17
   35.40800        1.2018498E-17
   35.56950        1.2002550E-17
   35.73100        1.1999848E-17
   35.89250        1.2012455E-17
   36.05400        1.2037212E-17
   36.21550        1.2066857E-17
   36.37700        1.2092591E-17
   36.53850        1.2107191E-17
   36.70000        1.2107572E-17
   36.86150        1.2095865E-17
   37.02300        1.2078639E-17
   37.18450        1.2064506E-17
   37.34600        1.2060982E-17
   37.50750        1.2071726E-17
   37.66900        1.2095179E-17
   37.83050        1.2125120E-17
   37.99200        1.2152961E-17
   38.15350        1.2170958E-17
   38.31500        1.2175169E-17
   38.47650        1.2167030E-17
   38.63800        1.2152946E-17
   38.79950        1.2141990E-17
   38.96100        1.2142535E-17
   39.12250        1.2159054E-17
   39.28400        1.2190281E-17
   39.44550        1.2229472E-17
   39.60700        1.2266691E-17
   39.76850        1.2292331E-17
   39.93000        1.2300584E-17
   40.09150        1.2291556E-17
   40.25300        1.2271243E-17
   40.41450        1.2249321E-17
   40.57600        1.2235579E-17
   40.73750        1.2236272E-17
   40.89900        1.2251787E-17
   41.06050        1.2276494E-17
   41.22200        1.2300864E-17
   41.38350        1.2315088E-17
   41.54500        1.2312861E-17
   41.70650        1.2293878E-17
   41.86800        1.2264101E-17
   42.02950        1.2233633E-17
   42.19100        1.2212984E-17
   42.35250        1.2209094E-17
   42.51400        1.2222632E-17
   42.67550        1.2247638E-17
   42.83700        1.2273662E-17
   42.99850        1.2289685E-17
   43.16000        1.2288313E-17
   43.32150        1.2268706E-17
   43.48300        1.2237046E-17
   43.64450        1.2204365E-17
   43.80600        1.2182484E-17
   43.96750        1.2179593E-17
   44.12900        1.2197156E-17
   44.29050        1.2229330E-17
   44.45200        1.2265163E-17
   44.61350        1.2292752E-17
   44.77500        1.2303786E-17
   44.93650        1.2296739E-17
   45.09800        1.2277468E-17
   45.25950        1.2256975E-17
   45.42100        1.2247158E-17
   45.58250        1.2256204E-17
   45.74400        1.2285355E-17
   45.90550        1.2328342E-17
   46.06700        1.2373679E-17
   46.22850        1.2408973E-17
   46.39000        1.2425588E-17
   46.55150        1.2421873E-17
   46.71300        1.2403721E-17
   46.87450        1.2382225E-17
   47.03600        1.2369350E-17
   47.19750        1.2373247E-17
   47.35900        1.2395056E-17
   47.52050        1.2428366E-17
   47.68200        1.2461609E-17
   47.84350        1.2482433E-17
   48.00500        1.2482423E-17
   48.16650        1.2460361E-17
   48.32800        1.2422800E-17
   48.48950        1.2381723E-17
   48.65100        1.2350185E-17
   48.81250        1.2337588E-17
   48.97400        1.2346366E-17
   49.13550        1.2371319E-17
   49.29700        1.2401820E-17
   49.45850        1.2426039E-17
   49.62000        1.2435542E-17
   49.78150        1.2428527E-17
   49.94300        1.2410444E-17
   50.10450        1.2391798E-17
   50.26600        1.2383970E-17
   50.42750        1.2394694E-17
   50.58900        1.2424896E-17
   50.75050        1.2468138E-17
   50.91200        1.2512869E-17
   51.07350        1.2546634E-17
   51.23500        1.2560635E-17
   51.39650        1.2552934E-17
   51.55800        1.2529076E-17
   51.71950        1.2499937E-17
   51.88100        1.2477622E-17
   52.04250        1.2470974E-17
   52.20400        1.2482396E-17
   52.36550        1.2507145E-17
   52.52700        1.2535330E-17
   52.68850        1.2555802E-17
   52.85000        1.2560446E-17
   53.01150        1.2547245E-17
   53.17300        1.2520988E-17
   53.33450        1.2491383E-17
   53.49600        1.2469357E-17
   53.65750        1.2462932E-17
   53.81900        1.2474256E-17
   53.98050        1.2498871E-17
   54.14200        1.2527463E-17
   54.30350        1.2549394E-17
   54.46500        1.2556707E-17
   54.62650        1.2547063E-17
   54.78800        1.2524591E-17
   54.94950        1.2498311E-17
   55.11100        1.2478778E-17
   55.27250        1.2474191E-17
   55.43400        1.2487399E-17
   55.59550        1.2514919E-17
   55.75700        1.2548270E-17
   55.91850        1.2577135E-17
   56.08000        1.2593152E-17
   56.24150        1.2592938E-17
   56.40300        1.2579233E-17
   56.56450        1.2559793E-17
   56.72600        1.2544433E-17
   56.88750        1.2541361E-17
   57.04900        1.2554154E-17
   57.21050        1.2580478E-17
   57.37200        1.2613019E-17
   57.53350        1.2642232E-17
   57.69500        1.2659888E-17
   57.85650        1.2662084E-17
   58.01800        1.2650609E-17
   58.17950        1.2632200E-17
   58.34100        1.2615970E-17
   58.50250        1.2609987E-17
   58.66400        1.2618280E-17
   58.82550        1.2639354E-17
   58.98700        1.2666763E-17
   59.14850        1.2691488E-17
   59.31000        1.2705260E-17
   59.47150        1.2703602E-17
   59.63300        1.2687492E-17
   59.79450        1.2663056E-17
   59.95600        1.2639410E-17
   60.11750        1.2625448E-17
   60.27900        1.2626704E-17
   60.44050        1.2643429E-17
   60.60200        1.2670558E-17
   60.76350        1.2699554E-17
   60.92500        1.2721494E-17
   61.08650        1.2730248E-17
   61.24800        1.2724642E-17
   61.40950        1.2708804E-17
   61.57100        1.2690574E-17
   61.73250        1.2678545E-17
   61.89400        1.2678821E-17
   62.05550        1.2692682E-17
   62.21700        1.2716034E-17
   62.37850        1.2740866E-17
   62.54000        1.2758220E-17
   62.70150        1.2761577E-17
   62.86300        1.2749418E-17
   63.02450        1.2725968E-17
   63.18600        1.2699812E-17
   63.34750        1.2680855E-17
   63.50900        1.2676710E-17
   63.67050        1.2689859E-17
   63.83200        1.2716642E-17
   63.99350        1.2748492E-17
   64.15500        1.2774973E-17
   64.31650        1.2787551E-17
   64.47800        1.2782671E-17
   64.63950        1.2763044E-17
   64.80100        1.2736601E-17
   64.96250        1.2713531E-17
   65.12400        1.2702468E-17
   65.28550        1.2707263E-17
   65.44700        1.2725548E-17
   65.60850        1.2749653E-17
   65.77000        1.2769552E-17
   65.93150        1.2776754E-17
   66.09300        1.2767678E-17
   66.25450        1.2745211E-17
   66.41600        1.2717834E-17
   66.57750        1.2696577E-17
   66.73900        1.2690930E-17
   66.90050        1.2705219E-17
   67.06200        1.2736838E-17
   67.22350        1.2777047E-17
   67.38500        1.2814088E-17
   67.54650        1.2837487E-17
   67.70800        1.2841942E-17
   67.86950        1.2829317E-17
   68.03100        1.2807945E-17
   68.19250        1.2789478E-17
   68.35400        1.2784435E-17
   68.51550        1.2798148E-17
   68.67700        1.2828642E-17
   68.83850        1.2867296E-17
   69.00000        1.2902054E-17
   69.16150        1.2922001E-17
   69.32300        1.2921537E-17
   69.48450        1.2902557E-17
   69.64600        1.2873777E-17
   69.80750        1.2847446E-17
   69.96900        1.2834667E-17
   70.13050        1.2841148E-17
   70.29200        1.2864993E-17
   70.45350        1.2897427E-17
   70.61500        1.2926168E-17
   70.77650        1.2940197E-17
   70.93800        1.2934083E-17
   71.09950        1.2910202E-17
   71.26100        1.2877972E-17
   71.42250        1.2850364E-17
   71.58400        1.2839006E-17
   71.74550        1.2849731E-17
   71.90700        1.2880277E-17
   72.06850        1.2921043E-17
   72.23000        1.2958616E-17
   72.39150        1.2980770E-17
   72.55300        1.2981016E-17
   72.71450        1.2960999E-17
   72.87600        1.2929790E-17
   73.03750        1.2900368E-17
   73.19900        1.2884614E-17
   73.36050        1.2888747E-17
   73.52200        1.2910960E-17
   73.68350        1.2942166E-17
   73.84500        1.2969577E-17
   74.00650        1.2981730E-17
   74.16800        1.2973026E-17
   74.32950        1.2945999E-17
   74.49100        1.2910440E-17
   74.65250        1.2879691E-17
   74.81400        1.2865524E-17
   74.97550        1.2873582E-17
   75.13700        1.2901162E-17
   75.29850        1.2938180E-17
   75.46000        1.2970970E-17
   75.62150        1.2987461E-17
   75.78300        1.2981740E-17
   75.94450        1.2956271E-17
   76.10600        1.2920914E-17
   76.26750        1.2889151E-17
   76.42900        1.2872979E-17
   76.59050        1.2878420E-17
   76.75200        1.2903378E-17
   76.91350        1.2938620E-17
   77.07500        1.2971485E-17
   77.23650        1.2990843E-17
   77.39800        1.2991398E-17
   77.55950        1.2975670E-17
   77.72100        1.2952912E-17
   77.88250        1.2935422E-17
   78.04400        1.2933667E-17
   78.20550        1.2952142E-17
   78.36700        1.2987542E-17
   78.52850        1.3029953E-17
   78.69000        1.3066580E-17
   78.85150        1.3086577E-17
   79.01300        1.3085117E-17
   79.17450        1.3065160E-17
   79.33600        1.3036254E-17
   79.49750        1.3010881E-17
   79.65900        1.2999736E-17
   79.82050        1.3007776E-17
   79.98200        1.3032499E-17
   80.14350        1.3065094E-17
   80.30500        1.3093937E-17
   80.46650        1.3109082E-17
   80.62800        1.3106018E-17
   80.78950        1.3087256E-17
   80.95100        1.3061222E-17
   81.11250        1.3038913E-17
   81.27400        1.3029661E-17
   81.43550        1.3037615E-17
   81.59700        1.3060286E-17
   81.75850        1.3089640E-17
   81.92000        1.3115294E-17
   82.08150        1.3128525E-17
   82.24300        1.3125580E-17
   82.40450        1.3109038E-17
   82.56600        1.3086754E-17
   82.72750        1.3068827E-17
   82.88900        1.3063784E-17
   83.05050        1.3075422E-17
   83.21200        1.3101460E-17
   83.37350        1.3134484E-17
   83.53500        1.3164752E-17
   83.69650        1.3183796E-17
   83.85800        1.3187441E-17
   84.01950        1.3177168E-17
   84.18100        1.3159354E-17
   84.34250        1.3142739E-17
   84.50400        1.3135116E-17
   84.66550        1.3140478E-17
   84.82700        1.3157665E-17
   84.98850        1.3180961E-17
   85.15000        1.3202334E-17
   85.31150        1.3214469E-17
   85.47300        1.3213429E-17
   85.63450        1.3199978E-17
   85.79600        1.3179145E-17
   85.95750        1.3158223E-17
   86.11900        1.3143997E-17
   86.28050        1.3140236E-17
   86.44200        1.3146366E-17
   86.60350        1.3157762E-17
   86.76500        1.3167540E-17
   86.92650        1.3169152E-17
   87.08800        1.3158845E-17
   87.24950        1.3137093E-17
   87.41100        1.3108525E-17
   87.57250        1.3080376E-17
   87.73400        1.3060054E-17
   87.89550        1.3052673E-17
   88.05700        1.3059418E-17
   88.21850        1.3077299E-17
   88.38000        1.3100346E-17
   88.54150        1.3121789E-17
   88.70300        1.3136447E-17
   88.86450        1.3142446E-17
   89.02600        1.3141708E-17
   89.18750        1.3139034E-17
   89.34900        1.3140148E-17
   89.51050        1.3149436E-17
   89.67200        1.3168193E-17
   89.83350        1.3194026E-17
   89.99500        1.3221635E-17
   90.15650        1.3244675E-17
   90.31800        1.3258040E-17
   90.47950        1.3259738E-17
   90.64100        1.3251658E-17
   90.80250        1.3238979E-17
   90.96400        1.3228369E-17
   91.12550        1.3225671E-17
   91.28700        1.3233833E-17
   91.44850        1.3251866E-17
   91.61000        1.3275189E-17
   91.77150        1.3297248E-17
   91.93300        1.3311846E-17
   92.09450        1.3315350E-17
   92.25600        1.3307999E-17
   92.41750        1.3293816E-17
   92.57900        1.3279153E-17
   92.74050        1.3270383E-17
   92.90200        1.3271569E-17
   93.06350        1.3282961E-17
   93.22500        1.3300893E-17
   93.38650        1.3319139E-17
   93.54800        1.3331263E-17
   93.70950        1.3333082E-17
   93.87100        1.3324334E-17
   94.03250        1.3308888E-17
   94.19400        1.3293373E-17
   94.35550        1.3284726E-17
   94.51700        1.3287525E-17
   94.67850        1.3302155E-17
   94.84000        1.3324512E-17
   95.00150        1.3347407E-17
   95.16300        1.3363194E-17
   95.32450        1.3366632E-17
   95.48600        1.3356920E-17
   95.64750        1.3338087E-17
   95.80900        1.3317579E-17
   95.97050        1.3303512E-17
   96.13200        1.3301647E-17
   96.29350        1.3313202E-17
   96.45500        1.3334374E-17
   96.61650        1.3357743E-17
   96.77800        1.3375080E-17
   96.93950        1.3380460E-17
   97.10100        1.3372519E-17
   97.26250        1.3354967E-17
   97.42400        1.3335133E-17
   97.58550        1.3321123E-17
   97.74700        1.3318650E-17
   97.90850        1.3328781E-17
   98.07000        1.3347505E-17
   98.23150        1.3367279E-17
   98.39300        1.3380003E-17
   98.55450        1.3380257E-17
   98.71600        1.3367539E-17
   98.87750        1.3346607E-17
   99.03900        1.3325768E-17
   99.20050        1.3313743E-17
   99.36200        1.3316322E-17
   99.52350        1.3334096E-17
   99.68500        1.3362172E-17
   99.84650        1.3391975E-17
   100.0080        1.3414461E-17
   100.1695        1.3423505E-17
   100.3310        1.3418145E-17
   100.4925        1.3402822E-17
   100.6540        1.3385546E-17
   100.8155        1.3374706E-17
   100.9770        1.3375803E-17
   101.1385        1.3389368E-17
   101.3000        1.3410866E-17
   101.4615        1.3432617E-17
   101.6230        1.3446928E-17
   101.7845        1.3449208E-17
   101.9460        1.3439810E-17
   102.1075        1.3423887E-17
   102.2690        1.3409344E-17
   102.4305        1.3403678E-17
   102.5920        1.3410992E-17
   102.7535        1.3430339E-17
   102.9150        1.3456024E-17
   103.0765        1.3479767E-17
   103.2380        1.3493828E-17
   103.3995        1.3493902E-17
   103.5610        1.3480648E-17
   103.7225        1.3459330E-17
   103.8840        1.3437710E-17
   104.0455        1.3423089E-17
   104.2070        1.3419642E-17
   104.3685        1.3427078E-17
   104.5300        1.3441074E-17
   104.6915        1.3455264E-17
   104.8530        1.3463922E-17
   105.0145        1.3464270E-17
   105.1760        1.3457507E-17
   105.3375        1.3448201E-17
   105.4990        1.3442341E-17
   105.6605        1.3444870E-17
   105.8220        1.3457677E-17
   105.9835        1.3478844E-17
   106.1450        1.3503385E-17
   106.3065        1.3525147E-17
   106.4680        1.3539097E-17
   106.6295        1.3543079E-17
   106.7910        1.3538421E-17
   106.9525        1.3529190E-17
   107.1140        1.3520474E-17
   107.2755        1.3516393E-17
   107.4370        1.3518628E-17
   107.5985        1.3525982E-17
   107.7600        1.3535093E-17
   107.9215        1.3541907E-17
   108.0830        1.3543325E-17
   108.2445        1.3538334E-17
   108.4060        1.3528261E-17
   108.5675        1.3516095E-17
   108.7290        1.3505258E-17
   108.8905        1.3498329E-17
   109.0520        1.3496229E-17
   109.2135        1.3498156E-17
   109.3750        1.3502185E-17
   109.5365        1.3506252E-17
   109.6980        1.3509040E-17
   109.8595        1.3510450E-17
   110.0210        1.3511500E-17
   110.1825        1.3513767E-17
   110.3440        1.3518667E-17
   110.5055        1.3526878E-17
   110.6670        1.3538144E-17
   110.8285        1.3551457E-17
   110.9900        1.3565480E-17
   111.1515        1.3578986E-17
   111.3130        1.3591107E-17
   111.4745        1.3601345E-17
   111.6360        1.3609416E-17
   111.7975        1.3615095E-17
   111.9590        1.3618208E-17
   112.1205        1.3618788E-17
   112.2820        1.3617325E-17
   112.4435        1.3614902E-17
   112.6050        1.3613075E-17
   112.7665        1.3613457E-17
   112.9280        1.3617113E-17
   113.0895        1.3624029E-17
   113.2510        1.3632931E-17
   113.4125        1.3641593E-17
   113.5740        1.3647589E-17
   113.7355        1.3649223E-17
   113.8970        1.3646241E-17
   114.0585        1.3639998E-17
   114.2200        1.3632944E-17
   114.3815        1.3627596E-17
   114.5430        1.3625407E-17
   114.7045        1.3626019E-17
   114.8660        1.3627275E-17
   115.0275        1.3626052E-17
   115.1890        1.3619651E-17
   115.3505        1.3607148E-17
   115.5120        1.3590156E-17
   115.6735        1.3572571E-17
   115.8350        1.3559337E-17
   115.9965        1.3554632E-17
   116.1580        1.3560194E-17
   116.3195        1.3574493E-17
   116.4810        1.3593109E-17
   116.6425        1.3610278E-17
   116.8040        1.3621013E-17
   116.9655        1.3623008E-17
   117.1270        1.3617534E-17
   117.2885        1.3608939E-17
   117.4500        1.3602909E-17
   117.6115        1.3604151E-17
   117.7730        1.3614430E-17
   117.9345        1.3631749E-17
   118.0960        1.3651045E-17
   118.2575        1.3666168E-17
   118.4190        1.3672359E-17
   118.5805        1.3668260E-17
   118.7420        1.3656600E-17