  -27.90000       -3.0766203E-18
  -27.73850       -3.0822106E-18
  -27.57700       -3.0913925E-18
  -27.41550       -3.1011202E-18
  -27.25400       -3.1085489E-18
  -27.09250       -3.1121860E-18
  -26.93100       -3.1124486E-18
  -26.76950       -3.1113989E-18
  -26.60800       -3.1117819E-18
  -26.44650       -3.1157786E-18
  -26.28500       -3.1240124E-18
  -26.12350       -3.1352401E-18
  -25.96200       -3.1468564E-18
  -25.80050       -3.1559910E-18
  -25.63900       -3.1607276E-18
  -25.47750       -3.1609249E-18
  -25.31600       -3.1582761E-18
  -25.15450       -3.1555948E-18
  -24.99300       -3.1556295E-18
  -24.83150       -3.1599127E-18
  -24.67000       -3.1681352E-18
  -24.50850       -3.1783052E-18
  -24.34700       -3.1876164E-18
  -24.18550       -3.1936513E-18
  -24.02400       -3.1954053E-18
  -23.86250       -3.1936926E-18
  -23.70100       -3.1907756E-18
  -23.53950       -3.1893816E-18
  -23.37800       -3.1915327E-18
  -23.21650       -3.1976923E-18
  -23.05500       -3.2065857E-18
  -22.89350       -3.2157639E-18
  -22.73200       -3.2226620E-18
  -22.57050       -3.2256971E-18
  -22.40900       -3.2249286E-18
  -22.24750       -3.2220145E-18
  -22.08600       -3.2194823E-18
  -21.92450       -3.2196363E-18
  -21.76300       -3.2235677E-18
  -21.60150       -3.2307005E-18
  -21.44000       -3.2390511E-18
  -21.27850       -3.2460937E-18
  -21.11700       -3.2498485E-18
  -20.95550       -3.2497277E-18
  -20.79400       -3.2467730E-18
  -20.63250       -3.2431971E-18
  -20.47100       -3.2414261E-18
  -20.30950       -3.2430706E-18
  -20.14800       -3.2482572E-18
  -19.98650       -3.2556156E-18
  -19.82500       -3.2628983E-18
  -19.66350       -3.2679683E-18
  -19.50200       -3.2697070E-18
  -19.34050       -3.2684609E-18
  -19.17900       -3.2658381E-18
  -19.01750       -3.2639674E-18
  -18.85600       -3.2645471E-18
  -18.69450       -3.2681114E-18
  -18.53300       -3.2738194E-18
  -18.37150       -3.2798512E-18
  -18.21000       -3.2842197E-18
  -18.04850       -3.2856418E-18
  -17.88700       -3.2840832E-18
  -17.72550       -3.2807594E-18
  -17.56400       -3.2775967E-18
  -17.40250       -3.2764045E-18
  -17.24100       -3.2781215E-18
  -17.07950       -3.2824471E-18
  -16.91800       -3.2880198E-18
  -16.75650       -3.2930370E-18
  -16.59500       -3.2960455E-18
  -16.43350       -3.2965557E-18
  -16.27200       -3.2952115E-18
  -16.11050       -3.2934614E-18
  -15.94900       -3.2928776E-18
  -15.78750       -3.2944377E-18
  -15.62600       -3.2980843E-18
  -15.46450       -3.3027624E-18
  -15.30300       -3.3069053E-18
  -15.14150       -3.3091555E-18
  -14.98000       -3.3089851E-18
  -14.81850       -3.3069415E-18
  -14.65700       -3.3044070E-18
  -14.49550       -3.3029841E-18
  -14.33400       -3.3037929E-18
  -14.17250       -3.3069924E-18
  -14.01100       -3.3117512E-18
  -13.84950       -3.3166535E-18
  -13.68800       -3.3203634E-18
  -13.52650       -3.3222239E-18
  -13.36500       -3.3225153E-18
  -13.20350       -3.3222698E-18
  -13.04200       -3.3227324E-18
  -12.88050       -3.3247373E-18
  -12.71900       -3.3282855E-18
  -12.55750       -3.3325312E-18
  -12.39600       -3.3361689E-18
  -12.23450       -3.3380423E-18
  -12.07300       -3.3376856E-18
  -11.91150       -3.3355535E-18
  -11.75000       -3.3328331E-18
  -11.58850       -3.3309265E-18
  -11.42700       -3.3308400E-18
  -11.26550       -3.3327593E-18
  -11.10400       -3.3359938E-18
  -10.94250       -3.3393221E-18
  -10.78100       -3.3415702E-18
  -10.61950       -3.3421693E-18
  -10.45800       -3.3414327E-18
  -10.29650       -3.3404335E-18
  -10.13500       -3.3405255E-18
  -9.973500       -3.3427185E-18
  -9.812000       -3.3471866E-18
  -9.650500       -3.3531410E-18
  -9.489000       -3.3591362E-18
  -9.327500       -3.3636849E-18
  -9.166000       -3.3659174E-18
  -9.004500       -3.3659832E-18
  -8.843000       -3.3650046E-18
  -8.681500       -3.3645840E-18
  -8.520000       -3.3660690E-18
  -8.358500       -3.3699113E-18
  -8.197000       -3.3754085E-18
  -8.035500       -3.3809705E-18
  -7.874000       -3.3848115E-18
  -7.712500       -3.3857582E-18
  -7.551000       -3.3838174E-18
  -7.389500       -3.3802225E-18
  -7.228000       -3.3769282E-18
  -7.066500       -3.3757615E-18
  -6.905000       -3.3776154E-18
  -6.743500       -3.3820444E-18
  -6.582000       -3.3874686E-18
  -6.420500       -3.3918913E-18
  -6.259000       -3.3938218E-18
  -6.097500       -3.3929758E-18
  -5.936000       -3.3904464E-18
  -5.774500       -3.3882420E-18
  -5.613000       -3.3884064E-18
  -5.451500       -3.3920952E-18
  -5.290000       -3.3990280E-18
  -5.128500       -3.4075602E-18
  -4.967000       -3.4153440E-18
  -4.805500       -3.4203044E-18
  -4.644000       -3.4215027E-18
  -4.482500       -3.4195225E-18
  -4.321000       -3.4162137E-18
  -4.159500       -3.4139005E-18
  -3.998000       -3.4143917E-18
  -3.836500       -3.4182081E-18
  -3.675000       -3.4243640E-18
  -3.513500       -3.4307887E-18
  -3.352000       -3.4352166E-18
  -3.190500       -3.4361742E-18
  -3.029000       -3.4336375E-18
  -2.867500       -3.4290778E-18
  -2.706000       -3.4248617E-18
  -2.544500       -3.4232429E-18
  -2.383000       -3.4253787E-18
  -2.221500       -3.4307961E-18
  -2.060000       -3.4375432E-18
  -1.898500       -3.4429939E-18
  -1.737000       -3.4449663E-18
  -1.575500       -3.4426788E-18
  -1.414000       -3.4371203E-18
  -1.252500       -3.4306685E-18
  -1.091000       -3.4260903E-18
 -0.9295000       -3.4253713E-18
 -0.7680000       -3.4288686E-18
 -0.6065000       -3.4351686E-18
 -0.4450000       -3.4417122E-18
 -0.2835000       -3.4459168E-18
 -0.1220000       -3.4463101E-18
  3.9500002E-02   -3.4431691E-18
  0.2010000       -3.4384002E-18
  0.3625000       -3.4347056E-18
  0.5240000       -3.4344072E-18
  0.6855000       -3.4384391E-18
  0.8470000       -3.4459385E-18
   1.008500       -3.4546084E-18
   1.170000       -3.4616832E-18
   1.331500       -3.4650892E-18
   1.493000       -3.4643077E-18
   1.654500       -3.4605823E-18
   1.816000       -3.4563924E-18
   1.977500       -3.4544179E-18
   2.139000       -3.4564321E-18
   2.300500       -3.4625720E-18
   2.462000       -3.4712912E-18
   2.623500       -3.4800146E-18
   2.785000       -3.4862176E-18
   2.946500       -3.4884833E-18
   3.108000       -3.4870961E-18
   3.269500       -3.4839143E-18
   3.431000       -3.4815734E-18
   3.592500       -3.4823460E-18
   3.754000       -3.4871490E-18
   3.915500       -3.4951210E-18
   4.077000       -3.5039648E-18
   4.238500       -3.5109152E-18
   4.400000       -3.5139232E-18
   4.561500       -3.5125356E-18
   4.723000       -3.5080932E-18
   4.884500       -3.5031533E-18
   5.046000       -3.5003876E-18
   5.207500       -3.5014365E-18
   5.369000       -3.5062209E-18
   5.530500       -3.5130042E-18
   5.692000       -3.5191638E-18
   5.853500       -3.5223327E-18
   6.015000       -3.5214142E-18
   6.176500       -3.5170309E-18
   6.338000       -3.5112465E-18
   6.499500       -3.5066829E-18
   6.661000       -3.5054318E-18
   6.822500       -3.5082103E-18
   6.984000       -3.5141077E-18
   7.145500       -3.5210059E-18
   7.307000       -3.5264844E-18
   7.468500       -3.5288203E-18
   7.630000       -3.5276805E-18
   7.791500       -3.5242270E-18
   7.953000       -3.5206101E-18
   8.114500       -3.5190464E-18
   8.276000       -3.5208719E-18
   8.437500       -3.5259558E-18
   8.599000       -3.5327155E-18
   8.760500       -3.5387465E-18
   8.922000       -3.5418124E-18
   9.083500       -3.5407842E-18
   9.245000       -3.5361330E-18
   9.406500       -3.5297554E-18
   9.568000       -3.5241910E-18
   9.729500       -3.5215622E-18
   9.891000       -3.5226802E-18
   10.05250       -3.5267288E-18
   10.21400       -3.5316509E-18
   10.37550       -3.5350899E-18
   10.53700       -3.5354622E-18
   10.69850       -3.5326779E-18
   10.86000       -3.5281937E-18
   11.02150       -3.5243701E-18
   11.18300       -3.5234288E-18
   11.34450       -3.5264724E-18
   11.50600       -3.5330059E-18
   11.66750       -3.5411569E-18
   11.82900       -3.5484845E-18
   11.99050       -3.5530166E-18
   12.15200       -3.5540593E-18
   12.31350       -3.5524318E-18
   12.47500       -3.5500594E-18
   12.63650       -3.5491090E-18
   12.79800       -3.5510541E-18
   12.95950       -3.5560677E-18
   13.12100       -3.5629783E-18
   13.28250       -3.5698001E-18
   13.44400       -3.5745816E-18
   13.60550       -3.5762265E-18
   13.76700       -3.5749410E-18
   13.92850       -3.5721269E-18
   14.09000       -3.5697782E-18
   14.25150       -3.5696256E-18
   14.41300       -3.5723983E-18
   14.57450       -3.5775181E-18
   14.73600       -3.5833534E-18
   14.89750       -3.5879356E-18
   15.05900       -3.5898220E-18
   15.22050       -3.5887396E-18
   15.38200       -3.5857266E-18
   15.54350       -3.5826847E-18
   15.70500       -3.5815547E-18
   15.86650       -3.5834622E-18
   16.02800       -3.5882247E-18
   16.18950       -3.5944389E-18
   16.35100       -3.6001192E-18
   16.51250       -3.6035884E-18
   16.67400       -3.6042232E-18
   16.83550       -3.6027049E-18
   16.99700       -3.6006775E-18
   17.15850       -3.5999649E-18
   17.32000       -3.6017251E-18
   17.48150       -3.6059177E-18
   17.64300       -3.6113246E-18
   17.80450       -3.6161131E-18
   17.96600       -3.6186670E-18
   18.12750       -3.6183097E-18
   18.28900       -3.6155945E-18
   18.45050       -3.6120409E-18
   18.61200       -3.6094448E-18
   18.77350       -3.6090866E-18
   18.93500       -3.6111856E-18
   19.09650       -3.6148421E-18
   19.25800       -3.6184751E-18
   19.41950       -3.6205584E-18
   19.58100       -3.6203197E-18
   19.74250       -3.6180946E-18
   19.90400       -3.6151738E-18
   20.06550       -3.6132205E-18
   20.22700       -3.6135000E-18
   20.38850       -3.6162922E-18
   20.55000       -3.6207354E-18
   20.71150       -3.6252009E-18
   20.87300       -3.6280299E-18
   21.03450       -3.6282962E-18
   21.19600       -3.6262576E-18
   21.35750       -3.6232624E-18
   21.51900       -3.6211448E-18
   21.68050       -3.6213698E-18
   21.84200       -3.6243266E-18
   22.00350       -3.6291048E-18
   22.16500       -3.6338892E-18
   22.32650       -3.6367930E-18
   22.48800       -3.6367587E-18
   22.64950       -3.6340869E-18
   22.81100       -3.6303369E-18
   22.97250       -3.6276266E-18
   23.13400       -3.6276506E-18
   23.29550       -3.6308816E-18
   23.45700       -3.6363290E-18
   23.61850       -3.6419881E-18
   23.78000       -3.6457696E-18
   23.94150       -3.6464913E-18
   24.10300       -3.6444618E-18
   24.26450       -3.6413826E-18
   24.42600       -3.6395955E-18
   24.58750       -3.6410187E-18
   24.74900       -3.6462506E-18
   24.91050       -3.6542470E-18
   25.07200       -3.6627218E-18
   25.23350       -3.6691085E-18
   25.39500       -3.6716537E-18
   25.55650       -3.6701760E-18
   25.71800       -3.6661472E-18
   25.87950       -3.6620580E-18
   26.04100       -3.6603251E-18
   26.20250       -3.6622102E-18
   26.36400       -3.6672275E-18
   26.52550       -3.6733143E-18
   26.68700       -3.6777182E-18
   26.84850       -3.6782364E-18
   27.01000       -3.6742643E-18
   27.17150       -3.6671865E-18
   27.33300       -3.6598970E-18
   27.49450       -3.6556130E-18
   27.65600       -3.6564812E-18
   27.81750       -3.6625858E-18
   27.97900       -3.6718262E-18
   28.14050       -3.6807527E-18
   28.30200       -3.6860504E-18
   28.46350       -3.6859995E-18
   28.62500       -3.6812805E-18
   28.78650       -3.6747184E-18
   28.94800       -3.6700622E-18
   29.10950       -3.6703170E-18
   29.27100       -3.6763757E-18
   29.43250       -3.6865616E-18
   29.59400       -3.6973170E-18
   29.75550       -3.7047348E-18
   29.91700       -3.7062754E-18
   30.07850       -3.7019037E-18
   30.24000       -3.6941266E-18
   30.40150       -3.6869235E-18
   30.56300       -3.6840073E-18
   30.72450       -3.6872010E-18
   30.88600       -3.6956122E-18
   31.04750       -3.7059855E-18
   31.20900       -3.7140699E-18
   31.37050       -3.7164340E-18
   31.53200       -3.7119395E-18
   31.69350       -3.7022611E-18
   31.85500       -3.6912166E-18
   32.01650       -3.6831809E-18
   32.17800       -3.6812528E-18
   32.33950       -3.6859487E-18
   32.50100       -3.6949848E-18
   32.66250       -3.7042463E-18
   32.82400       -3.7095498E-18
   32.98550       -3.7084480E-18
   33.14700       -3.7013135E-18
   33.30850       -3.6912174E-18
   33.47000       -3.6826511E-18
   33.63150       -3.6796091E-18
   33.79300       -3.6838617E-18
   33.95450       -3.6941638E-18
   34.11600       -3.7067452E-18
   34.27750       -3.7169022E-18
   34.43900       -3.7209967E-18
   34.60050       -3.7180085E-18
   34.76200       -3.7099737E-18
   34.92350       -3.7011117E-18
   35.08500       -3.6960336E-18
   35.24650       -3.6977860E-18
   35.40800       -3.7065682E-18
   35.56950       -3.7196563E-18
   35.73100       -3.7325590E-18
   35.89250       -3.7409012E-18
   36.05400       -3.7422366E-18
   36.21550       -3.7370357E-18
   36.37700       -3.7284430E-18
   36.53850       -3.7209314E-18
   36.70000       -3.7184287E-18
   36.86150       -3.7226904E-18
   37.02300       -3.7325913E-18
   37.18450       -3.7446131E-18
   37.34600       -3.7543222E-18
   37.50750       -3.7582211E-18
   37.66900       -3.7552151E-18
   37.83050       -3.7470785E-18
   37.99200       -3.7377260E-18
   38.15350       -3.7315805E-18
   38.31500       -3.7317137E-18
   38.47650       -3.7385416E-18
   38.63800       -3.7496254E-18
   38.79950       -3.7606708E-18
   38.96100       -3.7673201E-18
   39.12250       -3.7669842E-18
   39.28400       -3.7599300E-18
   39.44550       -3.7491688E-18
   39.60700       -3.7391810E-18
   39.76850       -3.7340211E-18
   39.93000       -3.7356275E-18
   40.09150       -3.7430510E-18
   40.25300       -3.7529280E-18
   40.41450       -3.7609686E-18
   40.57600       -3.7638083E-18
   40.73750       -3.7604251E-18
   40.89900       -3.7525210E-18
   41.06050       -3.7437491E-18
   41.22200       -3.7381264E-18
   41.38350       -3.7383361E-18
   41.54500       -3.7446243E-18
   41.70650       -3.7547353E-18
   41.86800       -3.7648803E-18
   42.02950       -3.7713034E-18
   42.19100       -3.7717914E-18
   42.35250       -3.7665156E-18
   42.51400       -3.7578844E-18
   42.67550       -3.7495059E-18
   42.83700       -3.7446975E-18
   42.99850       -3.7451553E-18
   43.16000       -3.7503079E-18
   43.32150       -3.7576131E-18
   43.48300       -3.7636619E-18
   43.64450       -3.7656256E-18
   43.80600       -3.7624534E-18
   43.96750       -3.7553119E-18
   44.12900       -3.7470959E-18
   44.29050       -3.7412047E-18
   44.45200       -3.7401199E-18
   44.61350       -3.7443799E-18
   44.77500       -3.7523890E-18
   44.93650       -3.7611431E-18
   45.09800       -3.7675343E-18
   45.25950       -3.7696771E-18
   45.42100       -3.7676679E-18
   45.58250       -3.7634650E-18
   45.74400       -3.7599627E-18
   45.90550       -3.7597075E-18
   46.06700       -3.7638112E-18
   46.22850       -3.7715437E-18
   46.39000       -3.7807262E-18
   46.55150       -3.7887089E-18
   46.71300       -3.7934892E-18
   46.87450       -3.7944739E-18
   47.03600       -3.7926157E-18
   47.19750       -3.7899013E-18
   47.35900       -3.7884736E-18
   47.52050       -3.7897590E-18
   47.68200       -3.7939598E-18
   47.84350       -3.8000582E-18
   48.00500       -3.8062985E-18
   48.16650       -3.8109071E-18
   48.32800       -3.8127658E-18
   48.48950       -3.8117905E-18
   48.65100       -3.8088979E-18
   48.81250       -3.8055937E-18
   48.97400       -3.8033516E-18
   49.13550       -3.8030257E-18
   49.29700       -3.8045395E-18
   49.45850       -3.8069557E-18
   49.62000       -3.8089086E-18
   49.78150       -3.8092097E-18
   49.94300       -3.8073618E-18
   50.10450       -3.8037607E-18
   50.26600       -3.7995036E-18
   50.42750       -3.7959029E-18
   50.58900       -3.7939317E-18
   50.75050       -3.7938573E-18
   50.91200       -3.7952196E-18
   51.07350       -3.7971354E-18
   51.23500       -3.7987504E-18
   51.39650       -3.7996120E-18
   51.55800       -3.7997848E-18
   51.71950       -3.7997025E-18
   51.88100       -3.7998684E-18
   52.04250       -3.8005975E-18
   52.20400       -3.8019231E-18
   52.36550       -3.8036738E-18
   52.52700       -3.8056334E-18
   52.68850       -3.8076555E-18
   52.85000       -3.8096672E-18
   53.01150       -3.8115800E-18
   53.17300       -3.8132092E-18
   53.33450       -3.8142845E-18
   53.49600       -3.8145744E-18
   53.65750       -3.8140558E-18
   53.81900       -3.8130115E-18
   53.98050       -3.8119676E-18
   54.14200       -3.8114832E-18
   54.30350       -3.8118877E-18
   54.46500       -3.8131144E-18
   54.62650       -3.8147167E-18
   54.78800       -3.8160629E-18
   54.94950       -3.8166213E-18
   55.11100       -3.8161853E-18
   55.27250       -3.8149599E-18
   55.43400       -3.8134718E-18
   55.59550       -3.8123708E-18
   55.75700       -3.8121963E-18
   55.91850       -3.8131897E-18
   56.08000       -3.8152002E-18
   56.24150       -3.8177016E-18
   56.40300       -3.8199201E-18
   56.56450       -3.8210694E-18
   56.72600       -3.8206426E-18
   56.88750       -3.8186681E-18
   57.04900       -3.8158284E-18
   57.21050       -3.8133225E-18
   57.37200       -3.8124692E-18
   57.53350       -3.8141658E-18
   57.69500       -3.8184357E-18
   57.85650       -3.8243083E-18
   58.01800       -3.8301473E-18
   58.17950       -3.8343395E-18
   58.34100       -3.8360480E-18
   58.50250       -3.8356617E-18
   58.66400       -3.8346894E-18
   58.82550       -3.8351026E-18
   58.98700       -3.8383914E-18
   59.14850       -3.8447851E-18
   59.31000       -3.8530098E-18
   59.47150       -3.8607381E-18
   59.63300       -3.8655436E-18
   59.79450       -3.8659477E-18
   59.95600       -3.8620819E-18
   60.11750       -3.8556692E-18
   60.27900       -3.8493272E-18
   60.44050       -3.8454899E-18
   60.60200       -3.8454088E-18
   60.76350       -3.8486431E-18
   60.92500       -3.8532492E-18
   61.08650       -3.8565919E-18
   61.24800       -3.8564604E-18
   61.40950       -3.8520474E-18
   61.57100       -3.8443860E-18
   61.73250       -3.8360608E-18
   61.89400       -3.8302454E-18
   62.05550       -3.8294202E-18
   62.21700       -3.8342741E-18
   62.37850       -3.8432643E-18
   62.54000       -3.8530805E-18
   62.70150       -3.8599126E-18
   62.86300       -3.8610434E-18
   63.02450       -3.8560976E-18
   63.18600       -3.8473548E-18
   63.34750       -3.8388968E-18
   63.50900       -3.8348867E-18
   63.67050       -3.8376792E-18
   63.83200       -3.8466347E-18
   63.99350       -3.8582293E-18
   64.15500       -3.8674921E-18
   64.31650       -3.8701907E-18
   64.47800       -3.8647884E-18
   64.63950       -3.8532757E-18
   64.80100       -3.8404329E-18
   64.96250       -3.8318116E-18
   65.12400       -3.8313087E-18
   65.28550       -3.8394122E-18
   65.44700       -3.8529180E-18
   65.60850       -3.8662790E-18
   65.77000       -3.8739970E-18
   65.93150       -3.8730309E-18
   66.09300       -3.8641581E-18
   66.25450       -3.8516900E-18
   66.41600       -3.8416547E-18
   66.57750       -3.8392029E-18
   66.73900       -3.8463489E-18
   66.90050       -3.8610094E-18
   67.06200       -3.8777731E-18
   67.22350       -3.8901150E-18
   67.38500       -3.8931533E-18
   67.54650       -3.8857905E-18
   67.70800       -3.8713140E-18
   67.86950       -3.8561402E-18
   68.03100       -3.8471678E-18
   68.19250       -3.8488271E-18
   68.35400       -3.8610893E-18
   68.51550       -3.8793377E-18
   68.67700       -3.8962415E-18
   68.83850       -3.9048905E-18
   69.00000       -3.9018548E-18
   69.16150       -3.8888027E-18
   69.32300       -3.8719013E-18
   69.48450       -3.8591822E-18
   69.64600       -3.8569906E-18
   69.80750       -3.8670863E-18
   69.96900       -3.8857202E-18
   70.13050       -3.9051664E-18
   70.29200       -3.9170662E-18
   70.45350       -3.9161220E-18
   70.61500       -3.9024892E-18
   70.77650       -3.8817766E-18
   70.93800       -3.8626406E-18
   71.09950       -3.8530234E-18
   71.26100       -3.8566990E-18
   71.42250       -3.8716565E-18
   71.58400       -3.8910241E-18
   71.74550       -3.9061144E-18
   71.90700       -3.9102498E-18
   72.06850       -3.9016885E-18
   72.23000       -3.8843872E-18
   72.39150       -3.8662749E-18
   72.55300       -3.8557970E-18
   72.71450       -3.8582326E-18
   72.87600       -3.8733654E-18
   73.03750       -3.8955107E-18
   73.19900       -3.9158995E-18
   73.36050       -3.9264043E-18
   73.52200       -3.9230120E-18
   73.68350       -3.9075491E-18
   73.84500       -3.8869085E-18
   74.00650       -3.8700716E-18
   74.16800       -3.8642185E-18
   74.32950       -3.8715940E-18
   74.49100       -3.8885322E-18
   74.65250       -3.9070805E-18
   74.81400       -3.9185415E-18
   74.97550       -3.9173768E-18
   75.13700       -3.9037271E-18
   75.29850       -3.8834136E-18
   75.46000       -3.8653889E-18
   75.62150       -3.8577648E-18
   75.78300       -3.8642073E-18
   75.94450       -3.8823106E-18
   76.10600       -3.9046949E-18
   76.26750       -3.9223168E-18
   76.42900       -3.9284859E-18
   76.59050       -3.9217687E-18
   76.75200       -3.9064982E-18
   76.91350       -3.8906829E-18
   77.07500       -3.8823213E-18
   77.23650       -3.8857905E-18
   77.39800       -3.8999353E-18
   77.55950       -3.9186676E-18
   77.72100       -3.9337579E-18
   77.88250       -3.9385258E-18
   78.04400       -3.9307776E-18
   78.20550       -3.9137108E-18
   78.36700       -3.8944342E-18
   78.52850       -3.8808175E-18
   78.69000       -3.8780717E-18
   78.85150       -3.8865751E-18
   79.01300       -3.9018585E-18
   79.17450       -3.9167184E-18
   79.33600       -3.9244869E-18
   79.49750       -3.9220049E-18
   79.65900       -3.9109856E-18
   79.82050       -3.8971729E-18
   79.98200       -3.8876901E-18
   80.14350       -3.8877716E-18
   80.30500       -3.8983575E-18
   80.46650       -3.9156443E-18
   80.62800       -3.9327971E-18
   80.78950       -3.9430409E-18
   80.95100       -3.9427233E-18
   81.11250       -3.9329245E-18
   81.27400       -3.9188897E-18
   81.43550       -3.9075528E-18
   81.59700       -3.9043016E-18
   81.75850       -3.9105104E-18
   81.92000       -3.9229810E-18
   82.08150       -3.9355330E-18
   82.24300       -3.9419809E-18
   82.40450       -3.9390713E-18
   82.56600       -3.9280098E-18
   82.72750       -3.9138733E-18
   82.88900       -3.9032325E-18
   83.05050       -3.9011037E-18
   83.21200       -3.9086728E-18
   83.37350       -3.9228164E-18
   83.53500       -3.9375985E-18
   83.69650       -3.9470172E-18
   83.85800       -3.9477174E-18
   84.01950       -3.9404419E-18
   84.18100       -3.9295864E-18
   84.34250       -3.9211107E-18
   84.50400       -3.9197765E-18
   84.66550       -3.9269709E-18
   84.82700       -3.9400887E-18
   84.98850       -3.9537285E-18
   85.15000       -3.9621592E-18
   85.31150       -3.9619379E-18
   85.47300       -3.9535068E-18
   85.63450       -3.9410350E-18
   85.79600       -3.9305604E-18
   85.95750       -3.9272434E-18
   86.11900       -3.9329733E-18
   86.28050       -3.9454356E-18
   86.44200       -3.9590957E-18
   86.60350       -3.9676909E-18
   86.76500       -3.9671107E-18
   86.92650       -3.9573297E-18
   87.08800       -3.9424723E-18
   87.24950       -3.9289512E-18
   87.41100       -3.9225025E-18
   87.57250       -3.9255010E-18
   87.73400       -3.9358197E-18
   87.89550       -3.9477869E-18
   88.05700       -3.9548283E-18
   88.21850       -3.9525506E-18
   88.38000       -3.9408377E-18
   88.54150       -3.9239612E-18
   88.70300       -3.9086703E-18
   88.86450       -3.9011459E-18
   89.02600       -3.9042309E-18
   89.18750       -3.9162089E-18
   89.34900       -3.9316507E-18
   89.51050       -3.9439190E-18
   89.67200       -3.9481571E-18
   89.83350       -3.9434243E-18
   89.99500       -3.9330263E-18
   90.15650       -3.9229425E-18
   90.31800       -3.9190879E-18
   90.47950       -3.9246287E-18
   90.64100       -3.9385597E-18
   90.80250       -3.9561207E-18
   90.96400       -3.9708656E-18
   91.12550       -3.9774665E-18
   91.28700       -3.9740238E-18
   91.44850       -3.9628933E-18
   91.61000       -3.9496509E-18
   91.77150       -3.9406554E-18
   91.93300       -3.9402562E-18
   92.09450       -3.9488771E-18
   92.25600       -3.9628370E-18
   92.41750       -3.9760091E-18
   92.57900       -3.9825897E-18
   92.74050       -3.9797471E-18
   92.90200       -3.9689416E-18
   93.06350       -3.9553068E-18
   93.22500       -3.9453517E-18
   93.38650       -3.9440203E-18
   93.54800       -3.9524493E-18
   93.70950       -3.9674527E-18
   93.87100       -3.9829623E-18
   94.03250       -3.9927632E-18
   94.19400       -3.9932425E-18
   94.35550       -3.9849211E-18
   94.51700       -3.9720795E-18
   94.67850       -3.9607178E-18
   94.84000       -3.9558192E-18
   95.00150       -3.9591809E-18
   95.16300       -3.9687563E-18
   95.32450       -3.9797330E-18
   95.48600       -3.9867963E-18
   95.64750       -3.9865097E-18
   95.80900       -3.9787735E-18
   95.97050       -3.9667752E-18
   96.13200       -3.9555152E-18
   96.29350       -3.9496212E-18
   96.45500       -3.9514137E-18
   96.61650       -3.9600221E-18
   96.77800       -3.9718698E-18
   96.93950       -3.9822646E-18
   97.10100       -3.9873782E-18
   97.26250       -3.9857905E-18
   97.42400       -3.9789654E-18
   97.58550       -3.9704980E-18
   97.74700       -3.9644893E-18
   97.90850       -3.9637461E-18
   98.07000       -3.9685938E-18
   98.23150       -3.9767895E-18
   98.39300       -3.9845596E-18
   98.55450       -3.9882877E-18
   98.71600       -3.9860957E-18
   98.87750       -3.9786333E-18
   99.03900       -3.9687501E-18
   99.20050       -3.9602314E-18
   99.36200       -3.9561836E-18
   99.52350       -3.9577958E-18
   99.68500       -3.9639922E-18
   99.84650       -3.9720721E-18
   100.0080       -3.9789923E-18
   100.1695       -3.9826728E-18
   100.3310       -3.9827713E-18
   100.4925       -3.9806380E-18
   100.6540       -3.9785700E-18
   100.8155       -3.9787516E-18
   100.9770       -3.9823465E-18
   101.1385       -3.9890926E-18
   101.3000       -3.9974806E-18
   101.4615       -4.0053769E-18
   101.6230       -4.0108094E-18
   101.7845       -4.0126275E-18
   101.9460       -4.0108296E-18
   102.1075       -4.0064861E-18
   102.2690       -4.0013175E-18
   102.4305       -3.9970707E-18
   102.5920       -3.9949201E-18
   102.7535       -3.9950698E-18
   102.9150       -3.9967200E-18
   103.0765       -3.9984124E-18
   103.2380       -3.9986457E-18
   103.3995       -3.9965227E-18
   103.5610       -3.9921593E-18
   103.7225       -3.9866764E-18
   103.8840       -3.9817637E-18
   104.0455       -3.9790001E-18
   104.2070       -3.9792181E-18
   104.3685       -3.9821831E-18
   104.5300       -3.9867161E-18
   104.6915       -3.9911721E-18
   104.8530       -3.9940858E-18
   105.0145       -3.9947017E-18
   105.1760       -3.9932086E-18
   105.3375       -3.9906162E-18
   105.4990       -3.9883353E-18
   105.6605       -3.9876508E-18
   105.8220       -3.9892580E-18
   105.9835       -3.9930204E-18
   106.1450       -3.9980174E-18
   106.3065       -4.0028647E-18
   106.4680       -4.0062078E-18
   106.6295       -4.0072297E-18
   106.7910       -4.0059840E-18
   106.9525       -4.0034057E-18
   107.1140       -4.0009610E-18
   107.2755       -4.0000556E-18
   107.4370       -4.0014316E-18
   107.5985       -4.0048255E-18
   107.7600       -4.0090475E-18
   107.9215       -4.0124728E-18
   108.0830       -4.0137322E-18
   108.2445       -4.0122929E-18
   108.4060       -4.0086819E-18
   108.5675       -4.0042552E-18
   108.7290       -4.0006309E-18
   108.8905       -3.9990402E-18
   109.0520       -3.9998773E-18
   109.2135       -4.0026079E-18
   109.3750       -4.0060411E-18
   109.5365       -4.0088204E-18
   109.6980       -4.0099243E-18
   109.8595       -4.0090152E-18
   110.0210       -4.0065320E-18
   110.1825       -4.0035426E-18
   110.3440       -4.0013911E-18
   110.5055       -4.0012509E-18
   110.6670       -4.0036944E-18
   110.8285       -4.0084341E-18
   110.9900       -4.0143394E-18
   111.1515       -4.0197917E-18
   111.3130       -4.0232704E-18
   111.4745       -4.0239768E-18
   111.6360       -4.0222174E-18
   111.7975       -4.0193413E-18
   111.9590       -4.0172196E-18
   112.1205       -4.0174479E-18
   112.2820       -4.0206222E-18
   112.4435       -4.0260278E-18
   112.6050       -4.0319070E-18
   112.7665       -4.0362117E-18
   112.9280       -4.0375145E-18
   113.0895       -4.0356550E-18
   113.2510       -4.0318483E-18
   113.4125       -4.0281868E-18
   113.5740       -4.0267802E-18
   113.7355       -4.0288808E-18
   113.8970       -4.0343704E-18
   114.0585       -4.0417943E-18
   114.2200       -4.0489184E-18
   114.3815       -4.0535779E-18
   114.5430       -4.0544977E-18
   114.7045       -4.0517478E-18
   114.8660       -4.0466730E-18
   115.0275       -4.0413112E-18
   115.1890       -4.0375186E-18
   115.3505       -4.0361629E-18
   115.5120       -4.0367134E-18
   115.6735       -4.0374384E-18
   115.8350       -4.0361670E-18
   115.9965       -4.0313131E-18
   116.1580       -4.0227125E-18
   116.3195       -4.0118657E-18
   116.4810       -4.0014242E-18
   116.6425       -3.9941073E-18
   116.8040       -3.9915439E-18
   116.9655       -3.9935780E-18
   117.1270       -3.9983905E-18
   117.2885       -4.0033842E-18
   117.4500       -4.0064026E-18
   117.6115       -4.0066958E-18
   117.7730       -4.0051618E-18
   117.9345       -4.0037796E-18
   118.0960       -4.0045385E-18
   118.2575       -4.0084172E-18
   118.4190       -4.0149217E-18
   118.5805       -4.0223791E-18
   118.7420       -4.0288005E-18