  -27.90000        5.7789952E-18
  -27.73850        5.7811239E-18
  -27.57700        5.7846093E-18
  -27.41550        5.7883887E-18
  -27.25400        5.7916804E-18
  -27.09250        5.7943394E-18
  -26.93100        5.7967974E-18
  -26.76950        5.7996524E-18
  -26.60800        5.8031964E-18
  -26.44650        5.8071913E-18
  -26.28500        5.8110203E-18
  -26.12350        5.8141103E-18
  -25.96200        5.8163221E-18
  -25.80050        5.8180489E-18
  -25.63900        5.8199522E-18
  -25.47750        5.8225165E-18
  -25.31600        5.8257193E-18
  -25.15450        5.8290504E-18
  -24.99300        5.8318653E-18
  -24.83150        5.8338340E-18
  -24.67000        5.8351785E-18
  -24.50850        5.8365227E-18
  -24.34700        5.8384583E-18
  -24.18550        5.8411260E-18
  -24.02400        5.8440984E-18
  -23.86250        5.8466466E-18
  -23.70100        5.8482269E-18
  -23.53950        5.8488618E-18
  -23.37800        5.8491579E-18
  -23.21650        5.8499408E-18
  -23.05500        5.8517354E-18
  -22.89350        5.8544171E-18
  -22.73200        5.8572709E-18
  -22.57050        5.8594261E-18
  -22.40900        5.8603989E-18
  -22.24750        5.8603922E-18
  -22.08600        5.8601635E-18
  -21.92450        5.8605403E-18
  -21.76300        5.8619114E-18
  -21.60150        5.8640037E-18
  -21.44000        5.8660965E-18
  -21.27850        5.8675019E-18
  -21.11700        5.8679990E-18
  -20.95550        5.8679394E-18
  -20.79400        5.8679717E-18
  -20.63250        5.8685971E-18
  -20.47100        5.8698486E-18
  -20.30950        5.8713135E-18
  -20.14800        5.8724662E-18
  -19.98650        5.8730791E-18
  -19.82500        5.8734236E-18
  -19.66350        5.8741036E-18
  -19.50200        5.8756297E-18
  -19.34050        5.8780178E-18
  -19.17900        5.8806995E-18
  -19.01750        5.8828225E-18
  -18.85600        5.8837646E-18
  -18.69450        5.8835244E-18
  -18.53300        5.8827286E-18
  -18.37150        5.8822472E-18
  -18.21000        5.8826728E-18
  -18.04850        5.8839896E-18
  -17.88700        5.8856498E-18
  -17.72550        5.8869824E-18
  -17.56400        5.8876694E-18
  -17.40250        5.8879684E-18
  -17.24100        5.8885474E-18
  -17.07950        5.8900285E-18
  -16.91800        5.8925501E-18
  -16.75650        5.8956306E-18
  -16.59500        5.8984293E-18
  -16.43350        5.9002433E-18
  -16.27200        5.9009055E-18
  -16.11050        5.9008463E-18
  -15.94900        5.9007760E-18
  -15.78750        5.9012202E-18
  -15.62600        5.9022240E-18
  -15.46450        5.9034032E-18
  -15.30300        5.9043011E-18
  -15.14150        5.9047651E-18
  -14.98000        5.9050980E-18
  -14.81850        5.9058557E-18
  -14.65700        5.9074530E-18
  -14.49550        5.9098361E-18
  -14.33400        5.9124666E-18
  -14.17250        5.9146338E-18
  -14.01100        5.9159126E-18
  -13.84950        5.9164515E-18
  -13.68800        5.9168945E-18
  -13.52650        5.9179706E-18
  -13.36500        5.9200092E-18
  -13.20350        5.9227062E-18
  -13.04200        5.9253024E-18
  -12.88050        5.9270605E-18
  -12.71900        5.9277384E-18
  -12.55750        5.9277438E-18
  -12.39600        5.9278720E-18
  -12.23450        5.9288001E-18
  -12.07300        5.9306670E-18
  -11.91150        5.9330005E-18
  -11.75000        5.9350308E-18
  -11.58850        5.9361814E-18
  -11.42700        5.9364230E-18
  -11.26550        5.9362650E-18
  -11.10400        5.9364060E-18
  -10.94250        5.9372667E-18
  -10.78100        5.9387167E-18
  -10.61950        5.9401705E-18
  -10.45800        5.9409807E-18
  -10.29650        5.9408653E-18
  -10.13500        5.9400882E-18
  -9.973500        5.9392772E-18
  -9.812000        5.9390216E-18
  -9.650500        5.9395162E-18
  -9.489000        5.9404910E-18
  -9.327500        5.9414514E-18
  -9.166000        5.9420416E-18
  -9.004500        5.9422881E-18
  -8.843000        5.9425561E-18
  -8.681500        5.9432592E-18
  -8.520000        5.9445384E-18
  -8.358500        5.9461328E-18
  -8.197000        5.9475452E-18
  -8.035500        5.9483923E-18
  -7.874000        5.9487000E-18
  -7.712500        5.9489345E-18
  -7.551000        5.9497249E-18
  -7.389500        5.9514520E-18
  -7.228000        5.9539848E-18
  -7.066500        5.9567410E-18
  -6.905000        5.9590521E-18
  -6.743500        5.9605853E-18
  -6.582000        5.9615490E-18
  -6.420500        5.9625400E-18
  -6.259000        5.9641290E-18
  -6.097500        5.9664583E-18
  -5.936000        5.9691152E-18
  -5.774500        5.9713680E-18
  -5.613000        5.9726208E-18
  -5.451500        5.9728090E-18
  -5.290000        5.9724818E-18
  -5.128500        5.9725162E-18
  -4.967000        5.9736267E-18
  -4.805500        5.9759767E-18
  -4.644000        5.9791187E-18
  -4.482500        5.9822876E-18
  -4.321000        5.9848498E-18
  -4.159500        5.9866291E-18
  -3.998000        5.9879129E-18
  -3.836500        5.9891764E-18
  -3.675000        5.9907232E-18
  -3.513500        5.9924951E-18
  -3.352000        5.9941399E-18
  -3.190500        5.9952806E-18
  -3.029000        5.9957686E-18
  -2.867500        5.9957558E-18
  -2.706000        5.9955486E-18
  -2.544500        5.9953641E-18
  -2.383000        5.9951743E-18
  -2.221500        5.9947566E-18
  -2.060000        5.9939306E-18
  -1.898500        5.9927908E-18
  -1.737000        5.9917576E-18
  -1.575500        5.9913709E-18
  -1.414000        5.9919437E-18
  -1.252500        5.9933053E-18
  -1.091000        5.9948310E-18
 -0.9295000        5.9957806E-18
 -0.7680000        5.9957318E-18
 -0.6065000        5.9948604E-18
 -0.4450000        5.9938611E-18
 -0.2835000        5.9935559E-18
 -0.1220000        5.9944178E-18
  3.9500002E-02    5.9962964E-18
  0.2010000        5.9985045E-18
  0.3625000        6.0002164E-18
  0.5240000        6.0009319E-18
  0.6855000        6.0007425E-18
  0.8470000        6.0002337E-18
   1.008500        6.0001150E-18
   1.170000        6.0008012E-18
   1.331500        6.0022078E-18
   1.493000        6.0038613E-18
   1.654500        6.0052316E-18
   1.816000        6.0060447E-18
   1.977500        6.0063880E-18
   2.139000        6.0065646E-18
   2.300500        6.0068417E-18
   2.462000        6.0072801E-18
   2.623500        6.0077656E-18
   2.785000        6.0081970E-18
   2.946500        6.0086619E-18
   3.108000        6.0094481E-18
   3.269500        6.0108622E-18
   3.431000        6.0129628E-18
   3.592500        6.0154096E-18
   3.754000        6.0175694E-18
   3.915500        6.0188461E-18
   4.077000        6.0190562E-18
   4.238500        6.0185938E-18
   4.400000        6.0182638E-18
   4.561500        6.0188453E-18
   4.723000        6.0206515E-18
   4.884500        6.0233415E-18
   5.046000        6.0261187E-18
   5.207500        6.0281850E-18
   5.369000        6.0291892E-18
   5.530500        6.0293964E-18
   5.692000        6.0295044E-18
   5.853500        6.0302269E-18
   6.015000        6.0319148E-18
   6.176500        6.0344033E-18
   6.338000        6.0371686E-18
   6.499500        6.0396464E-18
   6.661000        6.0415130E-18
   6.822500        6.0427641E-18
   6.984000        6.0435747E-18
   7.145500        6.0440933E-18
   7.307000        6.0443324E-18
   7.468500        6.0442393E-18
   7.630000        6.0438737E-18
   7.791500        6.0435185E-18
   7.953000        6.0435974E-18
   8.114500        6.0444242E-18
   8.276000        6.0459475E-18
   8.437500        6.0477003E-18
   8.599000        6.0490200E-18
   8.760500        6.0494349E-18
   8.922000        6.0489853E-18
   9.083500        6.0482524E-18
   9.245000        6.0480605E-18
   9.406500        6.0489985E-18
   9.568000        6.0510412E-18
   9.729500        6.0535029E-18
   9.891000        6.0553782E-18
   10.05250        6.0558811E-18
   10.21400        6.0548773E-18
   10.37550        6.0529570E-18
   10.53700        6.0511140E-18
   10.69850        6.0502298E-18
   10.86000        6.0506612E-18
   11.02150        6.0521443E-18
   11.18300        6.0540303E-18
   11.34450        6.0556586E-18
   11.50600        6.0566504E-18
   11.66750        6.0569725E-18
   11.82900        6.0568117E-18
   11.99050        6.0563939E-18
   12.15200        6.0558865E-18
   12.31350        6.0554361E-18
   12.47500        6.0552524E-18
   12.63650        6.0556230E-18
   12.79800        6.0567844E-18
   12.95950        6.0587196E-18
   13.12100        6.0610307E-18
   13.28250        6.0630378E-18
   13.44400        6.0641095E-18
   13.60550        6.0640482E-18
   13.76700        6.0632835E-18
   13.92850        6.0627095E-18
   14.09000        6.0632095E-18
   14.25150        6.0651381E-18
   14.41300        6.0680638E-18
   14.57450        6.0709461E-18
   14.73600        6.0726584E-18
   14.89750        6.0725806E-18
   15.05900        6.0709238E-18
   15.22050        6.0686114E-18
   15.38200        6.0667949E-18
   15.54350        6.0662680E-18
   15.70500        6.0671171E-18
   15.86650        6.0687644E-18
   16.02800        6.0703592E-18
   16.18950        6.0712505E-18
   16.35100        6.0712728E-18
   16.51250        6.0707145E-18
   16.67400        6.0700540E-18
   16.83550        6.0696685E-18
   16.99700        6.0697033E-18
   17.15850        6.0701293E-18
   17.32000        6.0708820E-18
   17.48150        6.0719242E-18
   17.64300        6.0731927E-18
   17.80450        6.0744765E-18
   17.96600        6.0753889E-18
   18.12750        6.0755055E-18
   18.28900        6.0746482E-18
   18.45050        6.0731232E-18
   18.61200        6.0717328E-18
   18.77350        6.0714710E-18
   18.93500        6.0730211E-18
   19.09650        6.0763315E-18
   19.25800        6.0805352E-18
   19.41950        6.0843262E-18
   19.58100        6.0865980E-18
   19.74250        6.0870116E-18
   19.90400        6.0861551E-18
   20.06550        6.0852046E-18
   20.22700        6.0852911E-18
   20.38850        6.0869206E-18
   20.55000        6.0897703E-18
   20.71150        6.0929413E-18
   20.87300        6.0954923E-18
   21.03450        6.0969320E-18
   21.19600        6.0974089E-18
   21.35750        6.0975280E-18
   21.51900        6.0979445E-18
   21.68050        6.0990037E-18
   21.84200        6.1006200E-18
   22.00350        6.1024315E-18
   22.16500        6.1040606E-18
   22.32650        6.1052898E-18
   22.48800        6.1060483E-18
   22.64950        6.1062783E-18
   22.81100        6.1058544E-18
   22.97250        6.1046545E-18
   23.13400        6.1027632E-18
   23.29550        6.1006233E-18
   23.45700        6.0989681E-18
   23.61850        6.0985045E-18
   23.78000        6.0995049E-18
   23.94150        6.1015584E-18
   24.10300        6.1036863E-18
   24.26450        6.1048105E-18
   24.42600        6.1043357E-18
   24.58750        6.1025200E-18
   24.74900        6.1003809E-18
   24.91050        6.0991629E-18
   25.07200        6.0996489E-18
   25.23350        6.1017201E-18
   25.39500        6.1044221E-18
   25.55650        6.1065070E-18
   25.71800        6.1071237E-18
   25.87950        6.1062498E-18
   26.04100        6.1046397E-18
   26.20250        6.1033488E-18
   26.36400        6.1031358E-18
   26.52550        6.1041045E-18
   26.68700        6.1057543E-18
   26.84850        6.1073578E-18
   27.01000        6.1083909E-18
   27.17150        6.1087594E-18
   27.33300        6.1087048E-18
   27.49450        6.1085146E-18
   27.65600        6.1082776E-18
   27.81750        6.1078611E-18
   27.97900        6.1071229E-18
   28.14050        6.1061621E-18
   28.30200        6.1053800E-18
   28.46350        6.1052691E-18
   28.62500        6.1060558E-18
   28.78650        6.1074727E-18
   28.94800        6.1088471E-18
   29.10950        6.1095097E-18
   29.27100        6.1092545E-18
   29.43250        6.1085526E-18
   29.59400        6.1083351E-18
   29.75550        6.1094476E-18
   29.91700        6.1121008E-18
   30.07850        6.1156532E-18
   30.24000        6.1188969E-18
   30.40150        6.1207018E-18
   30.56300        6.1206514E-18
   30.72450        6.1192803E-18
   30.88600        6.1177724E-18
   31.04750        6.1172951E-18
   31.20900        6.1183684E-18
   31.37050        6.1206502E-18
   31.53200        6.1232256E-18
   31.69350        6.1252017E-18
   31.85500        6.1262109E-18
   32.01650        6.1265339E-18
   32.17800        6.1268073E-18
   32.33950        6.1275583E-18
   32.50100        6.1288781E-18
   32.66250        6.1304324E-18
   32.82400        6.1317588E-18
   32.98550        6.1326195E-18
   33.14700        6.1331398E-18
   33.30850        6.1336485E-18
   33.47000        6.1343470E-18
   33.63150        6.1350770E-18
   33.79300        6.1353839E-18
   33.95450        6.1348644E-18
   34.11600        6.1335504E-18
   34.27750        6.1320173E-18
   34.43900        6.1310962E-18
   34.60050        6.1313311E-18
   34.76200        6.1325434E-18
   34.92350        6.1338267E-18
   35.08500        6.1340190E-18
   35.24650        6.1323961E-18
   35.40800        6.1291589E-18
   35.56950        6.1253978E-18
   35.73100        6.1225241E-18
   35.89250        6.1214877E-18
   36.05400        6.1222462E-18
   36.21550        6.1238067E-18
   36.37700        6.1248204E-18
   36.53850        6.1243820E-18
   36.70000        6.1225423E-18
   36.86150        6.1202473E-18
   37.02300        6.1187356E-18
   37.18450        6.1188080E-18
   37.34600        6.1204024E-18
   37.50750        6.1227119E-18
   37.66900        6.1247269E-18
   37.83050        6.1258300E-18
   37.99200        6.1260665E-18
   38.15350        6.1259875E-18
   38.31500        6.1262100E-18
   38.47650        6.1270294E-18
   38.63800        6.1283392E-18
   38.79950        6.1298629E-18
   38.96100        6.1314817E-18
   39.12250        6.1333929E-18
   39.28400        6.1359406E-18
   39.44550        6.1392419E-18
   39.60700        6.1429075E-18
   39.76850        6.1461033E-18
   39.93000        6.1479967E-18
   40.09150        6.1483032E-18
   40.25300        6.1475546E-18
   40.41450        6.1468602E-18
   40.57600        6.1472461E-18
   40.73750        6.1489931E-18
   40.89900        6.1513820E-18
   41.06050        6.1530599E-18
   41.22200        6.1528279E-18
   41.38350        6.1503894E-18
   41.54500        6.1465963E-18
   41.70650        6.1430366E-18
   41.86800        6.1411895E-18
   42.02950        6.1416403E-18
   42.19100        6.1438244E-18
   42.35250        6.1464239E-18
   42.51400        6.1481671E-18
   42.67550        6.1485290E-18
   42.83700        6.1479169E-18
   42.99850        6.1472837E-18
   43.16000        6.1474558E-18
   43.32150        6.1486362E-18
   43.48300        6.1503844E-18
   43.64450        6.1520106E-18
   43.80600        6.1530827E-18
   43.96750        6.1536646E-18
   44.12900        6.1541427E-18
   44.29050        6.1548077E-18
   44.45200        6.1555212E-18
   44.61350        6.1557516E-18
   44.77500        6.1549740E-18
   44.93650        6.1531633E-18
   45.09800        6.1510019E-18
   45.25950        6.1495903E-18
   45.42100        6.1497876E-18
   45.58250        6.1516012E-18
   45.74400        6.1540472E-18
   45.90550        6.1556440E-18
   46.06700        6.1552805E-18
   46.22850        6.1529296E-18
   46.39000        6.1497591E-18
   46.55150        6.1475339E-18
   46.71300        6.1476522E-18
   46.87450        6.1503786E-18
   47.03600        6.1547093E-18
   47.19750        6.1589308E-18
   47.35900        6.1615307E-18
   47.52050        6.1619227E-18
   47.68200        6.1606055E-18
   47.84350        6.1587158E-18
   48.00500        6.1573195E-18
   48.16650        6.1568724E-18
   48.32800        6.1571470E-18
   48.48950        6.1575805E-18
   48.65100        6.1577281E-18
   48.81250        6.1574919E-18
   48.97400        6.1570052E-18
   49.13550        6.1563422E-18
   49.29700        6.1553620E-18
   49.45850        6.1538449E-18
   49.62000        6.1518431E-18
   49.78150        6.1499373E-18
   49.94300        6.1491151E-18
   50.10450        6.1502541E-18
   50.26600        6.1534830E-18
   50.42750        6.1578683E-18
   50.58900        6.1617122E-18
   50.75050        6.1633955E-18
   50.91200        6.1623128E-18
   51.07350        6.1593411E-18
   51.23500        6.1564869E-18
   51.39650        6.1558496E-18
   51.55800        6.1584626E-18
   51.71950        6.1636739E-18
   51.88100        6.1694526E-18
   52.04250        6.1734656E-18
   52.20400        6.1743056E-18
   52.36550        6.1721881E-18
   52.52700        6.1687565E-18
   52.68850        6.1661414E-18
   52.85000        6.1658494E-18
   53.01150        6.1680753E-18
   53.17300        6.1717633E-18
   53.33450        6.1752792E-18
   53.49600        6.1772562E-18
   53.65750        6.1771404E-18
   53.81900        6.1752201E-18
   53.98050        6.1722650E-18
   54.14200        6.1690857E-18
   54.30350        6.1662923E-18
   54.46500        6.1643030E-18
   54.62650        6.1634278E-18
   54.78800        6.1638385E-18
   54.94950        6.1653766E-18
   55.11100        6.1673863E-18
   55.27250        6.1688082E-18
   55.43400        6.1686308E-18
   55.59550        6.1665049E-18
   55.75700        6.1631300E-18
   55.91850        6.1600914E-18
   56.08000        6.1591273E-18
   56.24150        6.1611684E-18
   56.40300        6.1657212E-18
   56.56450        6.1709857E-18
   56.72600        6.1747304E-18
   56.88750        6.1754736E-18
   57.04900        6.1733076E-18
   57.21050        6.1698782E-18
   57.37200        6.1675046E-18
   57.53350        6.1679206E-18
   57.69500        6.1713555E-18
   57.85650        6.1764542E-18
   58.01800        6.1810517E-18
   58.17950        6.1833260E-18
   58.34100        6.1826784E-18
   58.50250        6.1798846E-18
   58.66400        6.1765312E-18
   58.82550        6.1741369E-18
   58.98700        6.1734714E-18
   59.14850        6.1744008E-18
   59.31000        6.1762230E-18
   59.47150        6.1781851E-18
   59.63300        6.1798370E-18
   59.79450        6.1810645E-18
   59.95600        6.1818892E-18
   60.11750        6.1822954E-18
   60.27900        6.1822544E-18
   60.44050        6.1819136E-18
   60.60200        6.1817271E-18
   60.76350        6.1823371E-18
   60.92500        6.1841764E-18
   61.08650        6.1870500E-18
   61.24800        6.1900150E-18
   61.40950        6.1917418E-18
   61.57100        6.1912074E-18
   61.73250        6.1883292E-18
   61.89400        6.1841296E-18
   62.05550        6.1802733E-18
   62.21700        6.1781992E-18
   62.37850        6.1783427E-18
   62.54000        6.1798957E-18
   62.70150        6.1812742E-18
   62.86300        6.1810207E-18
   63.02450        6.1786318E-18
   63.18600        6.1748251E-18
   63.34750        6.1711044E-18
   63.50900        6.1689120E-18
   63.67050        6.1688661E-18
   63.83200        6.1705415E-18
   63.99350        6.1728473E-18
   64.15500        6.1747292E-18
   64.31650        6.1757433E-18
   64.47800        6.1761788E-18
   64.63950        6.1767264E-18
   64.80100        6.1779796E-18
   64.96250        6.1800963E-18
   65.12400        6.1828132E-18
   65.28550        6.1857240E-18
   65.44700        6.1885819E-18
   65.60850        6.1913679E-18
   65.77000        6.1941042E-18
   65.93150        6.1965862E-18
   66.09300        6.1982844E-18
   66.25450        6.1985730E-18
   66.41600        6.1971548E-18
   66.57750        6.1943945E-18
   66.73900        6.1912711E-18
   66.90050        6.1889116E-18
   67.06200        6.1879574E-18
   67.22350        6.1881671E-18
   67.38500        6.1885278E-18
   67.54650        6.1878520E-18
   67.70800        6.1855077E-18
   67.86950        6.1818466E-18
   68.03100        6.1780606E-18
   68.19250        6.1755402E-18
   68.35400        6.1751080E-18
   68.51550        6.1765841E-18
   68.67700        6.1789192E-18
   68.83850        6.1808201E-18
   69.00000        6.1814682E-18
   69.16150        6.1809272E-18
   69.32300        6.1800165E-18
   69.48450        6.1797824E-18
   69.64600        6.1809086E-18
   69.80750        6.1834270E-18
   69.96900        6.1868263E-18
   70.13050        6.1904237E-18
   70.29200        6.1937063E-18
   70.45350        6.1964505E-18
   70.61500        6.1986049E-18
   70.77650        6.2001149E-18
   70.93800        6.2008755E-18
   71.09950        6.2008569E-18
   71.26100        6.2002808E-18
   71.42250        6.1996546E-18
   71.58400        6.1995433E-18
   71.74550        6.2001852E-18
   71.90700        6.2011944E-18
   72.06850        6.2016287E-18
   72.23000        6.2004640E-18
   72.39150        6.1972516E-18
   72.55300        6.1925520E-18
   72.71450        6.1878238E-18
   72.87600        6.1847575E-18
   73.03750        6.1843861E-18
   73.19900        6.1864974E-18
   73.36050        6.1896937E-18
   73.52200        6.1921028E-18
   73.68350        6.1923572E-18
   73.84500        6.1902938E-18
   74.00650        6.1870041E-18
   74.16800        6.1842285E-18
   74.32950        6.1834340E-18
   74.49100        6.1850970E-18
   74.65250        6.1885443E-18
   74.81400        6.1923816E-18
   74.97550        6.1952259E-18
   75.13700        6.1963140E-18
   75.29850        6.1957209E-18
   75.46000        6.1941485E-18
   75.62150        6.1925061E-18
   75.78300        6.1915370E-18
   75.94450        6.1916322E-18
   76.10600        6.1928130E-18
   76.26750        6.1947705E-18
   76.42900        6.1969079E-18
   76.59050        6.1984291E-18
   76.75200        6.1985511E-18
   76.91350        6.1968566E-18
   77.07500        6.1936364E-18
   77.23650        6.1899894E-18
   77.39800        6.1875165E-18
   77.55950        6.1876365E-18
   77.72100        6.1908439E-18
   77.88250        6.1963078E-18
   78.04400        6.2021266E-18
   78.20550        6.2061823E-18
   78.36700        6.2071947E-18
   78.52850        6.2054027E-18
   78.69000        6.2024620E-18
   78.85150        6.2005814E-18
   79.01300        6.2013412E-18
   79.17450        6.2048476E-18
   79.33600        6.2096688E-18
   79.49750        6.2135868E-18
   79.65900        6.2147316E-18
   79.82050        6.2124850E-18
   79.98200        6.2077084E-18
   80.14350        6.2022230E-18
   80.30500        6.1978861E-18
   80.46650        6.1957602E-18
   80.62800        6.1957743E-18
   80.78950        6.1969460E-18
   80.95100        6.1979659E-18
   81.11250        6.1977727E-18
   81.27400        6.1958855E-18
   81.43550        6.1924350E-18
   81.59700        6.1880058E-18
   81.75850        6.1834460E-18
   81.92000        6.1796773E-18
   82.08150        6.1774849E-18
   82.24300        6.1772554E-18
   82.40450        6.1787426E-18
   82.56600        6.1810314E-18
   82.72750        6.1828235E-18
   82.88900        6.1830163E-18
   83.05050        6.1813135E-18
   83.21200        6.1785181E-18
   83.37350        6.1762669E-18
   83.53500        6.1762594E-18
   83.69650        6.1793485E-18
   83.85800        6.1850027E-18
   84.01950        6.1914688E-18
   84.18100        6.1966126E-18
   84.34250        6.1989916E-18
   84.50400        6.1985817E-18
   84.66550        6.1967342E-18
   84.82700        6.1953971E-18
   84.98850        6.1960386E-18
   85.15000        6.1988874E-18
   85.31150        6.2028814E-18
   85.47300        6.2063250E-18
   85.63450        6.2078193E-18
   85.79600        6.2069627E-18
   85.95750        6.2044407E-18
   86.11900        6.2015534E-18
   86.28050        6.1995073E-18
   86.44200        6.1988770E-18
   86.60350        6.1995082E-18
   86.76500        6.2007953E-18
   86.92650        6.2021022E-18
   87.08800        6.2030440E-18
   87.24950        6.2035117E-18
   87.41100        6.2035469E-18
   87.57250        6.2032288E-18
   87.73400        6.2026932E-18
   87.89550        6.2022209E-18
   88.05700        6.2022507E-18
   88.21850        6.2031928E-18
   88.38000        6.2051247E-18
   88.54150        6.2075777E-18
   88.70300        6.2096225E-18
   88.86450        6.2102958E-18
   89.02600        6.2091552E-18
   89.18750        6.2066112E-18
   89.34900        6.2037921E-18
   89.51050        6.2019608E-18
   89.67200        6.2017941E-18
   89.83350        6.2029592E-18
   89.99500        6.2042773E-18
   90.15650        6.2044134E-18
   90.31800        6.2026899E-18
   90.47950        6.1995454E-18
   90.64100        6.1963273E-18
   90.80250        6.1945356E-18
   90.96400        6.1949620E-18
   91.12550        6.1972417E-18
   91.28700        6.2000682E-18
   91.44850        6.2019397E-18
   91.61000        6.2019744E-18
   91.77150        6.2003213E-18
   91.93300        6.1979663E-18
   92.09450        6.1960965E-18
   92.25600        6.1954240E-18
   92.41750        6.1958715E-18
   92.57900        6.1967413E-18
   92.74050        6.1972074E-18
   92.90200        6.1967867E-18
   93.06350        6.1955207E-18
   93.22500        6.1938085E-18
   93.38650        6.1920950E-18
   93.54800        6.1906412E-18
   93.70950        6.1895402E-18
   93.87100        6.1888789E-18
   94.03250        6.1888562E-18
   94.19400        6.1897135E-18
   94.35550        6.1915023E-18
   94.51700        6.1938991E-18
   94.67850        6.1962561E-18
   94.84000        6.1979382E-18
   95.00150        6.1987443E-18
   95.16300        6.1991132E-18
   95.32450        6.1999309E-18
   95.48600        6.2019889E-18
   95.64750        6.2054167E-18
   95.80900        6.2094575E-18
   95.97050        6.2127819E-18
   96.13200        6.2141981E-18
   96.29350        6.2133531E-18
   96.45500        6.2109899E-18
   96.61650        6.2085695E-18
   96.77800        6.2074673E-18
   96.93950        6.2082118E-18
   97.10100        6.2102247E-18
   97.26250        6.2122083E-18
   97.42400        6.2129250E-18
   97.58550        6.2119105E-18
   97.74700        6.2096854E-18
   97.90850        6.2073858E-18
   98.07000        6.2060723E-18
   98.23150        6.2061463E-18
   98.39300        6.2072092E-18
   98.55450        6.2083838E-18
   98.71600        6.2088599E-18
   98.87750        6.2083036E-18
   99.03900        6.2068970E-18
   99.20050        6.2050623E-18
   99.36200        6.2031089E-18
   99.52350        6.2010649E-18
   99.68500        6.1987898E-18
   99.84650        6.1962379E-18
   100.0080        6.1936269E-18
   100.1695        6.1913654E-18
   100.3310        6.1897826E-18
   100.4925        6.1888760E-18
   100.6540        6.1882995E-18
   100.8155        6.1876183E-18
   100.9770        6.1866645E-18
   101.1385        6.1857377E-18
   101.3000        6.1854622E-18
   101.4615        6.1863874E-18
   101.6230        6.1885782E-18
   101.7845        6.1914825E-18
   101.9460        6.1942026E-18
   102.1075        6.1960175E-18
   102.2690        6.1968273E-18
   102.4305        6.1972264E-18
   102.5920        6.1981268E-18
   102.7535        6.2001687E-18
   102.9150        6.2032863E-18
   103.0765        6.2067166E-18
   103.2380        6.2094484E-18
   103.3995        6.2108240E-18
   103.5610        6.2109179E-18
   103.7225        6.2104530E-18
   103.8840        6.2103269E-18
   104.0455        6.2110577E-18
   104.2070        6.2124957E-18
   104.3685        6.2139673E-18
   104.5300        6.2147337E-18
   104.6915        6.2144607E-18
   104.8530        6.2134114E-18
   105.0145        6.2122567E-18
   105.1760        6.2116475E-18
   105.3375        6.2118377E-18
   105.4990        6.2125834E-18
   105.6605        6.2133486E-18
   105.8220        6.2136484E-18
   105.9835        6.2132927E-18
   106.1450        6.2123865E-18
   106.3065        6.2111491E-18
   106.4680        6.2097156E-18
   106.6295        6.2080811E-18
   106.7910        6.2062129E-18
   106.9525        6.2042020E-18
   107.1140        6.2022978E-18
   107.2755        6.2007762E-18
   107.4370        6.1997257E-18
   107.5985        6.1989271E-18
   107.7600        6.1979589E-18
   107.9215        6.1964919E-18
   108.0830        6.1945980E-18
   108.2445        6.1928399E-18
   108.4060        6.1920358E-18
   108.5675        6.1927985E-18
   108.7290        6.1951233E-18
   108.8905        6.1982885E-18
   109.0520        6.2011758E-18
   109.2135        6.2028276E-18
   109.3750        6.2029381E-18
   109.5365        6.2019694E-18
   109.6980        6.2008395E-18
   109.8595        6.2003701E-18
   110.0210        6.2008304E-18
   110.1825        6.2018313E-18
   110.3440        6.2026064E-18
   110.5055        6.2024931E-18
   110.6670        6.2013201E-18
   110.8285        6.1994958E-18
   110.9900        6.1977744E-18
   111.1515        6.1968699E-18
   111.3130        6.1971441E-18
   111.4745        6.1985176E-18
   111.6360        6.2006067E-18
   111.7975        6.2029439E-18
   111.9590        6.2051479E-18
   112.1205        6.2069772E-18
   112.2820        6.2083131E-18
   112.4435        6.2091461E-18
   112.6050        6.2096031E-18
   112.7665        6.2099642E-18
   112.9280        6.2105895E-18
   113.0895        6.2117422E-18
   113.2510        6.2133850E-18
   113.4125        6.2151022E-18
   113.5740        6.2162346E-18
   113.7355        6.2161965E-18
   113.8970        6.2148209E-18
   114.0585        6.2125028E-18
   114.2200        6.2100316E-18
   114.3815        6.2081898E-18
   114.5430        6.2073180E-18
   114.7045        6.2071273E-18
   114.8660        6.2068800E-18
   115.0275        6.2058469E-18
   115.1890        6.2037706E-18
   115.3505        6.2010596E-18
   115.5120        6.1985834E-18
   115.6735        6.1971983E-18
   115.8350        6.1972901E-18
   115.9965        6.1985933E-18
   116.1580        6.2003780E-18
   116.3195        6.2018689E-18
   116.4810        6.2026370E-18
   116.6425        6.2027499E-18
   116.8040        6.2026391E-18
   116.9655        6.2027884E-18
   117.1270        6.2034555E-18
   117.2885        6.2045660E-18
   117.4500        6.2057989E-18
   117.6115        6.2067783E-18
   117.7730        6.2072245E-18
   117.9345        6.2070103E-18
   118.0960        6.2061351E-18
   118.2575        6.2047058E-18
   118.4190        6.2029497E-18
   118.5805        6.2012366E-18
   118.7420        6.2000152E-18