  -27.90000        8.8829354E-18
  -27.73850        8.9115286E-18
  -27.57700        8.9584951E-18
  -27.41550        9.0082607E-18
  -27.25400        9.0462838E-18
  -27.09250        9.0649185E-18
  -26.93100        9.0662701E-18
  -26.76950        9.0608694E-18
  -26.60800        9.0627463E-18
  -26.44650        9.0830627E-18
  -26.28500        9.1250322E-18
  -26.12350        9.1823235E-18
  -25.96200        9.2416208E-18
  -25.80050        9.2882382E-18
  -25.63900        9.3123605E-18
  -25.47750        9.3132414E-18
  -25.31600        9.2995416E-18
  -25.15450        9.2856806E-18
  -24.99300        9.2857534E-18
  -24.83150        9.3076240E-18
  -24.67000        9.3497052E-18
  -24.50850        9.4017671E-18
  -24.34700        9.4494160E-18
  -24.18550        9.4802682E-18
  -24.02400        9.4892026E-18
  -23.86250        9.4804403E-18
  -23.70100        9.4656122E-18
  -23.53950        9.4586912E-18
  -23.37800        9.4699764E-18
  -23.21650        9.5017476E-18
  -23.05500        9.5473865E-18
  -22.89350        9.5943215E-18
  -22.73200        9.6294783E-18
  -22.57050        9.6448755E-18
  -22.40900        9.6409530E-18
  -22.24750        9.6262573E-18
  -22.08600        9.6136602E-18
  -21.92450        9.6147777E-18
  -21.76300        9.6349981E-18
  -21.60150        9.6712609E-18
  -21.44000        9.7134777E-18
  -21.27850        9.7489414E-18
  -21.11700        9.7678020E-18
  -20.95550        9.7672287E-18
  -20.79400        9.7525256E-18
  -20.63250        9.7347544E-18
  -20.47100        9.7259582E-18
  -20.30950        9.7340671E-18
  -20.14800        9.7596609E-18
  -19.98650        9.7959468E-18
  -19.82500        9.8318671E-18
  -19.66350        9.8569390E-18
  -19.50200        9.8657170E-18
  -19.34050        9.8599499E-18
  -19.17900        9.8475777E-18
  -19.01750        9.8390793E-18
  -18.85600        9.8428066E-18
  -18.69450        9.8613611E-18
  -18.53300        9.8905506E-18
  -18.37150        9.9213333E-18
  -18.21000        9.9438318E-18
  -18.04850        9.9516412E-18
  -17.88700        9.9445622E-18
  -17.72550        9.9286084E-18
  -17.56400        9.9133444E-18
  -17.40250        9.9077667E-18
  -17.24100        9.9165398E-18
  -17.07950        9.9381855E-18
  -16.91800        9.9659638E-18
  -16.75650        9.9909703E-18
  -16.59500        1.0006045E-17
  -16.43350        1.0008768E-17
  -16.27200        1.0002261E-17
  -16.11050        9.9935313E-18
  -15.94900        9.9901547E-18
  -15.78750        9.9968218E-18
  -15.62600        1.0013296E-17
  -15.46450        1.0034638E-17
  -15.30300        1.0053563E-17
  -15.14150        1.0063817E-17
  -14.98000        1.0063042E-17
  -14.81850        1.0053876E-17
  -14.65700        1.0042800E-17
  -14.49550        1.0037311E-17
  -14.33400        1.0042681E-17
  -14.17250        1.0059769E-17
  -14.01100        1.0084801E-17
  -13.84950        1.0111194E-17
  -13.68800        1.0132517E-17
  -13.52650        1.0145275E-17
  -13.36500        1.0150226E-17
  -13.20350        1.0151716E-17
  -13.04200        1.0155380E-17
  -12.88050        1.0165291E-17
  -12.71900        1.0181908E-17
  -12.55750        1.0201761E-17
  -12.39600        1.0219015E-17
  -12.23450        1.0228179E-17
  -12.07300        1.0226710E-17
  -11.91150        1.0216313E-17
  -11.75000        1.0202316E-17
  -11.58850        1.0191413E-17
  -11.42700        1.0188791E-17
  -11.26550        1.0195952E-17
  -11.10400        1.0210210E-17
  -10.94250        1.0226096E-17
  -10.78100        1.0238031E-17
  -10.61950        1.0243011E-17
  -10.45800        1.0242084E-17
  -10.29650        1.0239913E-17
  -10.13500        1.0242608E-17
  -9.973500        1.0254814E-17
  -9.812000        1.0277397E-17
  -9.650500        1.0306815E-17
  -9.489000        1.0336500E-17
  -9.327500        1.0359671E-17
  -9.166000        1.0372314E-17
  -9.004500        1.0374973E-17
  -8.843000        1.0372508E-17
  -8.681500        1.0371876E-17
  -8.520000        1.0378900E-17
  -8.358500        1.0395490E-17
  -8.197000        1.0418583E-17
  -8.035500        1.0441346E-17
  -7.874000        1.0456153E-17
  -7.712500        1.0458049E-17
  -7.551000        1.0447137E-17
  -7.389500        1.0428799E-17
  -7.228000        1.0411565E-17
  -7.066500        1.0403542E-17
  -6.905000        1.0408943E-17
  -6.743500        1.0426282E-17
  -6.582000        1.0449060E-17
  -6.420500        1.0468709E-17
  -6.259000        1.0478511E-17
  -6.097500        1.0476749E-17
  -5.936000        1.0467673E-17
  -5.774500        1.0459771E-17
  -5.613000        1.0462039E-17
  -5.451500        1.0479884E-17
  -5.290000        1.0512444E-17
  -5.128500        1.0552606E-17
  -4.967000        1.0589756E-17
  -4.805500        1.0614173E-17
  -4.644000        1.0621165E-17
  -4.482500        1.0613128E-17
  -4.321000        1.0598602E-17
  -4.159500        1.0588647E-17
  -3.998000        1.0592092E-17
  -3.836500        1.0611698E-17
  -3.675000        1.0642925E-17
  -3.513500        1.0675884E-17
  -3.352000        1.0699678E-17
  -3.190500        1.0707250E-17
  -3.029000        1.0698635E-17
  -2.867500        1.0681141E-17
  -2.706000        1.0666306E-17
  -2.544500        1.0664915E-17
  -2.383000        1.0682186E-17
  -2.221500        1.0715271E-17
  -2.060000        1.0754194E-17
  -1.898500        1.0785902E-17
  -1.737000        1.0799758E-17
  -1.575500        1.0792107E-17
  -1.414000        1.0767958E-17
  -1.252500        1.0738967E-17
  -1.091000        1.0718583E-17
 -0.9295000        1.0716347E-17
 -0.7680000        1.0733848E-17
 -0.6065000        1.0764062E-17
 -0.4450000        1.0794410E-17
 -0.2835000        1.0812266E-17
 -0.1220000        1.0810526E-17
  3.9500002E-02    1.0790852E-17
  0.2010000        1.0763124E-17
  0.3625000        1.0741300E-17
  0.5240000        1.0737421E-17
  0.6855000        1.0756328E-17
  0.8470000        1.0793417E-17
   1.008500        1.0836411E-17
   1.170000        1.0870492E-17
   1.331500        1.0884589E-17
   1.493000        1.0876146E-17
   1.654500        1.0852314E-17
   1.816000        1.0826980E-17
   1.977500        1.0814908E-17
   2.139000        1.0825431E-17
   2.300500        1.0858438E-17
   2.462000        1.0904361E-17
   2.623500        1.0948221E-17
   2.785000        1.0976020E-17
   2.946500        1.0980738E-17
   3.108000        1.0965364E-17
   3.269500        1.0941633E-17
   3.431000        1.0924979E-17
   3.592500        1.0927851E-17
   3.754000        1.0954265E-17
   3.915500        1.0997950E-17
   4.077000        1.1044911E-17
   4.238500        1.1079358E-17
   4.400000        1.1090456E-17
   4.561500        1.1077015E-17
   4.723000        1.1048059E-17
   4.884500        1.1019027E-17
   5.046000        1.1005195E-17
   5.207500        1.1015135E-17
   5.369000        1.1047024E-17
   5.530500        1.1089403E-17
   5.692000        1.1126078E-17
   5.853500        1.1143059E-17
   6.015000        1.1134582E-17
   6.176500        1.1105609E-17
   6.338000        1.1069739E-17
   6.499500        1.1043438E-17
   6.661000        1.1039038E-17
   6.822500        1.1059548E-17
   6.984000        1.1097467E-17
   7.145500        1.1138109E-17
   7.307000        1.1166001E-17
   7.468500        1.1171594E-17
   7.630000        1.1155374E-17
   7.791500        1.1127655E-17
   7.953000        1.1104096E-17
   8.114500        1.1098903E-17
   8.276000        1.1118637E-17
   8.437500        1.1159269E-17
   8.599000        1.1207775E-17
   8.760500        1.1247560E-17
   8.922000        1.1265422E-17
   9.083500        1.1257044E-17
   9.245000        1.1228722E-17
   9.406500        1.1194581E-17
   9.568000        1.1170516E-17
   9.729500        1.1167459E-17
   9.891000        1.1186881E-17
   10.05250        1.1220406E-17
   10.21400        1.1253700E-17
   10.37550        1.1272884E-17
   10.53700        1.1270699E-17
   10.69850        1.1249743E-17
   10.86000        1.1221392E-17
   11.02150        1.1200901E-17
   11.18300        1.1200800E-17
   11.34450        1.1225475E-17
   11.50600        1.1269233E-17
   11.66750        1.1318679E-17
   11.82900        1.1358359E-17
   11.99050        1.1377218E-17
   12.15200        1.1373095E-17
   12.31350        1.1353381E-17
   12.47500        1.1331595E-17
   12.63650        1.1321429E-17
   12.79800        1.1330841E-17
   12.95950        1.1358750E-17
   13.12100        1.1395703E-17
   13.28250        1.1428164E-17
   13.44400        1.1444511E-17
   13.60550        1.1440130E-17
   13.76700        1.1419394E-17
   13.92850        1.1393725E-17
   14.09000        1.1376608E-17
   14.25150        1.1377779E-17
   14.41300        1.1399087E-17
   14.57450        1.1433824E-17
   14.73600        1.1469747E-17
   14.89750        1.1494444E-17
   15.05900        1.1500683E-17
   15.22050        1.1489425E-17
   15.38200        1.1469232E-17
   15.54350        1.1452399E-17
   15.70500        1.1449524E-17
   15.86650        1.1464939E-17
   16.02800        1.1494951E-17
   16.18950        1.1529615E-17
   16.35100        1.1557187E-17
   16.51250        1.1569250E-17
   16.67400        1.1564265E-17
   16.83550        1.1548020E-17
   16.99700        1.1530871E-17
   17.15850        1.1523031E-17
   17.32000        1.1530054E-17
   17.48150        1.1550496E-17
   17.64300        1.1576724E-17
   17.80450        1.1598468E-17
   17.96600        1.1607477E-17
   18.12750        1.1601197E-17
   18.28900        1.1583866E-17
   18.45050        1.1564607E-17
   18.61200        1.1553384E-17
   18.77350        1.1556684E-17
   18.93500        1.1574803E-17
   19.09650        1.1601901E-17
   19.25800        1.1628758E-17
   19.41950        1.1646919E-17
   19.58100        1.1652380E-17
   19.74250        1.1647183E-17
   19.90400        1.1638242E-17
   20.06550        1.1634002E-17
   20.22700        1.1640484E-17
   20.38850        1.1658495E-17
   20.55000        1.1683278E-17
   20.71150        1.1706711E-17
   20.87300        1.1721038E-17
   21.03450        1.1722431E-17
   21.19600        1.1712738E-17
   21.35750        1.1698660E-17
   21.51900        1.1688704E-17
   21.68050        1.1689328E-17
   21.84200        1.1702039E-17
   22.00350        1.1722737E-17
   22.16500        1.1743632E-17
   22.32650        1.1756826E-17
   22.48800        1.1757936E-17
   22.64950        1.1748100E-17
   22.81100        1.1733449E-17
   22.97250        1.1722285E-17
   23.13400        1.1721268E-17
   23.29550        1.1732342E-17
   23.45700        1.1751858E-17
   23.61850        1.1772291E-17
   23.78000        1.1785800E-17
   23.94150        1.1787981E-17
   24.10300        1.1780077E-17
   24.26450        1.1768585E-17
   24.42600        1.1762394E-17
   24.58750        1.1768722E-17
   24.74900        1.1789683E-17
   24.91050        1.1821102E-17
   25.07200        1.1854148E-17
   25.23350        1.1879114E-17
   25.39500        1.1889667E-17
   25.55650        1.1885627E-17
   25.71800        1.1873016E-17
   25.87950        1.1861287E-17
   26.04100        1.1858972E-17
   26.20250        1.1869719E-17
   26.36400        1.1890519E-17
   26.52550        1.1912991E-17
   26.68700        1.1927183E-17
   26.84850        1.1926223E-17
   27.01000        1.1909721E-17
   27.17150        1.1884314E-17
   27.33300        1.1861058E-17
   27.49450        1.1850728E-17
   27.65600        1.1859100E-17
   27.81750        1.1884320E-17
   27.97900        1.1917591E-17
   28.14050        1.1946942E-17
   28.30200        1.1962456E-17
   28.46350        1.1960674E-17
   28.62500        1.1946203E-17
   28.78650        1.1929735E-17
   28.94800        1.1923322E-17
   29.10950        1.1934919E-17
   29.27100        1.1964651E-17
   29.43250        1.2004496E-17
   29.59400        1.2041602E-17
   29.75550        1.2063850E-17
   29.91700        1.2065221E-17
   30.07850        1.2048566E-17
   30.24000        1.2024515E-17
   30.40150        1.2006894E-17
   30.56300        1.2006638E-17
   30.72450        1.2026864E-17
   30.88600        1.2061307E-17
   31.04750        1.2096887E-17
   31.20900        1.2119360E-17
   31.37050        1.2119589E-17
   31.53200        1.2097710E-17
   31.69350        1.2063286E-17
   31.85500        1.2031349E-17
   32.01650        1.2015987E-17
   32.17800        1.2024274E-17
   32.33950        1.2053185E-17
   32.50100        1.2090892E-17
   32.66250        1.2121901E-17
   32.82400        1.2133839E-17
   32.98550        1.2122920E-17
   33.14700        1.2095690E-17
   33.30850        1.2066233E-17
   33.47000        1.2050022E-17
   33.63150        1.2057066E-17
   33.79300        1.2087355E-17
   33.95450        1.2130643E-17
   34.11600        1.2170700E-17
   34.27750        1.2192260E-17
   34.43900        1.2187653E-17
   34.60050        1.2160237E-17
   34.76200        1.2123081E-17
   34.92350        1.2093430E-17
   35.08500        1.2085299E-17
   35.24650        1.2103429E-17
   35.40800        1.2141240E-17
   35.56950        1.2183701E-17
   35.73100        1.2213897E-17
   35.89250        1.2220438E-17
   36.05400        1.2202473E-17
   36.21550        1.2170106E-17
   36.37700        1.2139998E-17
   36.53850        1.2128094E-17
   36.70000        1.2142604E-17
   36.86150        1.2180359E-17
   37.02300        1.2228118E-17
   37.18450        1.2268300E-17
   37.34600        1.2286637E-17
   37.50750        1.2278398E-17
   37.66900        1.2250480E-17
   37.83050        1.2218440E-17
   37.99200        1.2199759E-17
   38.15350        1.2206254E-17
   38.31500        1.2238944E-17
   38.47650        1.2287584E-17
   38.63800        1.2335060E-17
   38.79950        1.2364733E-17
   38.96100        1.2367561E-17
   39.12250        1.2345883E-17
   39.28400        1.2312261E-17
   39.44550        1.2283901E-17
   39.60700        1.2275104E-17
   39.76850        1.2291033E-17
   39.93000        1.2325536E-17
   40.09150        1.2363923E-17
   40.25300        1.2389509E-17
   40.41450        1.2391027E-17
   40.57600        1.2367686E-17
   40.73750        1.2329650E-17
   40.89900        1.2293728E-17
   41.06050        1.2276146E-17
   41.22200        1.2285587E-17
   41.38350        1.2319487E-17
   41.54500        1.2365235E-17
   41.70650        1.2405676E-17
   41.86800        1.2426521E-17
   42.02950        1.2422412E-17
   42.19100        1.2399011E-17
   42.35250        1.2370245E-17
   42.51400        1.2351996E-17
   42.67550        1.2354985E-17
   42.83700        1.2380043E-17
   42.99850        1.2417781E-17
   43.16000        1.2452777E-17
   43.32150        1.2470405E-17
   43.48300        1.2463264E-17
   43.64450        1.2434425E-17
   43.80600        1.2396066E-17
   43.96750        1.2364179E-17
   44.12900        1.2351672E-17
   44.29050        1.2362894E-17
   44.45200        1.2391955E-17
   44.61350        1.2425506E-17
   44.77500        1.2448743E-17
   44.93650        1.2451938E-17
   45.09800        1.2434666E-17
   45.25950        1.2405894E-17
   45.42100        1.2379952E-17
   45.58250        1.2370187E-17
   45.74400        1.2383137E-17
   45.90550        1.2415725E-17
   46.06700        1.2456706E-17
   46.22850        1.2491651E-17
   46.39000        1.2509270E-17
   46.55150        1.2506267E-17
   46.71300        1.2488603E-17
   46.87450        1.2468673E-17
   47.03600        1.2459646E-17
   47.19750        1.2469543E-17
   47.35900        1.2497646E-17
   47.52050        1.2534834E-17
   47.68200        1.2567651E-17
   47.84350        1.2584280E-17
   48.00500        1.2579762E-17
   48.16650        1.2558164E-17
   48.32800        1.2530757E-17
   48.48950        1.2511046E-17
   48.65100        1.2508875E-17
   48.81250        1.2526228E-17
   48.97400        1.2556564E-17
   49.13550        1.2587914E-17
   49.29700        1.2608338E-17
   49.45850        1.2611256E-17
   49.62000        1.2598290E-17
   49.78150        1.2578385E-17
   49.94300        1.2563654E-17
   50.10450        1.2563821E-17
   50.26600        1.2581783E-17
   50.42750        1.2612235E-17
   50.58900        1.2643985E-17
   50.75050        1.2664897E-17
   50.91200        1.2667243E-17
   51.07350        1.2651110E-17
   51.23500        1.2624340E-17
   51.39650        1.2599067E-17
   51.55800        1.2586390E-17
   51.71950        1.2591569E-17
   51.88100        1.2611831E-17
   52.04250        1.2637756E-17
   52.20400        1.2657602E-17
   52.36550        1.2662615E-17
   52.52700        1.2650978E-17
   52.68850        1.2628619E-17
   52.85000        1.2606527E-17
   53.01150        1.2595774E-17
   53.17300        1.2602475E-17
   53.33450        1.2624971E-17
   53.49600        1.2654474E-17
   53.65750        1.2678950E-17
   53.81900        1.2688485E-17
   53.98050        1.2679749E-17
   54.14200        1.2657563E-17
   54.30350        1.2632826E-17
   54.46500        1.2617729E-17
   54.62650        1.2620360E-17
   54.78800        1.2641132E-17
   54.94950        1.2672622E-17
   55.11100        1.2702904E-17
   55.27250        1.2720880E-17
   55.43400        1.2721227E-17
   55.59550        1.2706742E-17
   55.75700        1.2687027E-17
   55.91850        1.2674118E-17
   56.08000        1.2677002E-17
   56.24150        1.2697490E-17
   56.40300        1.2729283E-17
   56.56450        1.2760689E-17
   56.72600        1.2779782E-17
   56.88750        1.2779711E-17
   57.04900        1.2761814E-17
   57.21050        1.2735107E-17
   57.37200        1.2712408E-17
   57.53350        1.2704741E-17
   57.69500        1.2716535E-17
   57.85650        1.2743708E-17
   58.01800        1.2775496E-17
   58.17950        1.2799249E-17
   58.34100        1.2806063E-17
   58.50250        1.2794783E-17
   58.66400        1.2772554E-17
   58.82550        1.2751692E-17
   58.98700        1.2744207E-17
   59.14850        1.2756420E-17
   59.31000        1.2786062E-17
   59.47150        1.2823170E-17
   59.63300        1.2854406E-17
   59.79450        1.2868915E-17
   59.95600        1.2863120E-17
   60.11750        1.2842300E-17
   60.27900        1.2818252E-17
   60.44050        1.2804021E-17
   60.60200        1.2808060E-17
   60.76350        1.2830403E-17
   60.92500        1.2862581E-17
   61.08650        1.2891334E-17
   61.24800        1.2904485E-17
   61.40950        1.2896340E-17
   61.57100        1.2870254E-17
   61.73250        1.2837209E-17
   61.89400        1.2811034E-17
   62.05550        1.2802410E-17
   62.21700        1.2814291E-17
   62.37850        1.2840767E-17
   62.54000        1.2869842E-17
   62.70150        1.2888852E-17
   62.86300        1.2890132E-17
   63.02450        1.2874396E-17
   63.18600        1.2850377E-17
   63.34750        1.2830882E-17
   63.50900        1.2827061E-17
   63.67050        1.2843387E-17
   63.83200        1.2875584E-17
   63.99350        1.2912377E-17
   64.15500        1.2940303E-17
   64.31650        1.2949463E-17
   64.47800        1.2937715E-17
   64.63950        1.2911478E-17
   64.80100        1.2882847E-17
   64.96250        1.2864291E-17
   65.12400        1.2863278E-17
   65.28550        1.2879182E-17
   65.44700        1.2903787E-17
   65.60850        1.2925130E-17
   65.77000        1.2932964E-17
   65.93150        1.2923398E-17
   66.09300        1.2900672E-17
   66.25450        1.2875305E-17
   66.41600        1.2859452E-17
   66.57750        1.2861542E-17
   66.73900        1.2882576E-17
   66.90050        1.2915710E-17
   67.06200        1.2949262E-17
   67.22350        1.2971798E-17
   67.38500        1.2977010E-17
   67.54650        1.2966269E-17
   67.70800        1.2947767E-17
   67.86950        1.2932712E-17
   68.03100        1.2930305E-17
   68.19250        1.2943740E-17
   68.35400        1.2968974E-17
   68.51550        1.2996692E-17
   68.67700        1.3016574E-17
   68.83850        1.3021870E-17
   69.00000        1.3012293E-17
   69.16150        1.2994004E-17
   69.32300        1.2976775E-17
   69.48450        1.2969658E-17
   69.64600        1.2977110E-17
   69.80750        1.2997216E-17
   69.96900        1.3022749E-17
   70.13050        1.3044474E-17
   70.29200        1.3055219E-17
   70.45350        1.3052902E-17
   70.61500        1.3041248E-17
   70.77650        1.3027961E-17
   70.93800        1.3021238E-17
   71.09950        1.3026198E-17
   71.26100        1.3042759E-17
   71.42250        1.3065843E-17
   71.58400        1.3087723E-17
   71.74550        1.3101405E-17
   71.90700        1.3103550E-17
   72.06850        1.3095692E-17
   72.23000        1.3083287E-17
   72.39150        1.3073124E-17
   72.55300        1.3070274E-17
   72.71450        1.3075960E-17
   72.87600        1.3087213E-17
   73.03750        1.3098396E-17
   73.19900        1.3103839E-17
   73.36050        1.3100367E-17
   73.52200        1.3088635E-17
   73.68350        1.3072733E-17
   73.84500        1.3058329E-17
   74.00650        1.3050244E-17
   74.16800        1.3050524E-17
   74.32950        1.3057809E-17
   74.49100        1.3068199E-17
   74.65250        1.3077124E-17
   74.81400        1.3081349E-17
   74.97550        1.3080235E-17
   75.13700        1.3075787E-17
   75.29850        1.3071553E-17
   75.46000        1.3070959E-17
   75.62150        1.3075833E-17
   75.78300        1.3085740E-17
   75.94450        1.3098338E-17
   76.10600        1.3110504E-17
   76.26750        1.3119698E-17
   76.42900        1.3124947E-17
   76.59050        1.3127077E-17
   76.75200        1.3128156E-17
   76.91350        1.3130459E-17
   77.07500        1.3135430E-17
   77.23650        1.3143085E-17
   77.39800        1.3152077E-17
   77.55950        1.3160315E-17
   77.72100        1.3165851E-17
   77.88250        1.3167621E-17
   78.04400        1.3165774E-17
   78.20550        1.3161476E-17
   78.36700        1.3156348E-17
   78.52850        1.3151805E-17
   78.69000        1.3148590E-17
   78.85150        1.3146671E-17
   79.01300        1.3145498E-17
   79.17450        1.3144459E-17
   79.33600        1.3143285E-17
   79.49750        1.3142252E-17
   79.65900        1.3142107E-17
   79.82050        1.3143766E-17
   79.98200        1.3147970E-17
   80.14350        1.3155004E-17
   80.30500        1.3164613E-17
   80.46650        1.3176084E-17
   80.62800        1.3188461E-17
   80.78950        1.3200793E-17
   80.95100        1.3212333E-17
   81.11250        1.3222648E-17
   81.27400        1.3231629E-17
   81.43550        1.3239404E-17
   81.59700        1.3246198E-17
   81.75850        1.3252182E-17
   81.92000        1.3257345E-17
   82.08150        1.3261476E-17
   82.24300        1.3264261E-17
   82.40450        1.3265495E-17
   82.56600        1.3265304E-17
   82.72750        1.3264283E-17
   82.88900        1.3263412E-17
   83.05050        1.3263787E-17
   83.21200        1.3266218E-17
   83.37350        1.3270894E-17
   83.53500        1.3277288E-17
   83.69650        1.3284372E-17
   83.85800        1.3291095E-17
   84.01950        1.3296897E-17
   84.18100        1.3302013E-17
   84.34250        1.3307396E-17
   84.50400        1.3314228E-17
   84.66550        1.3323235E-17
   84.82700        1.3334136E-17
   84.98850        1.3345493E-17
   85.15000        1.3355121E-17
   85.31150        1.3360902E-17
   85.47300        1.3361676E-17
   85.63450        1.3357783E-17
   85.79600        1.3350996E-17
   85.95750        1.3343800E-17
   86.11900        1.3338296E-17
   86.28050        1.3335225E-17
   86.44200        1.3333561E-17
   86.60350        1.3330935E-17
   86.76500        1.3324775E-17
   86.92650        1.3313658E-17
   87.08800        1.3298292E-17
   87.24950        1.3281587E-17
   87.41100        1.3267716E-17
   87.57250        1.3260472E-17
   87.73400        1.3261628E-17
   87.89550        1.3270050E-17
   88.05700        1.3282030E-17
   88.21850        1.3292804E-17
   88.38000        1.3298630E-17
   88.54150        1.3298517E-17
   88.70300        1.3294772E-17
   88.86450        1.3292017E-17
   89.02600        1.3295058E-17
   89.18750        1.3306490E-17
   89.34900        1.3325173E-17
   89.51050        1.3346351E-17
   89.67200        1.3363455E-17
   89.83350        1.3370902E-17
   89.99500        1.3366641E-17
   90.15650        1.3353277E-17
   90.31800        1.3337172E-17
   90.47950        1.3325827E-17
   90.64100        1.3324634E-17
   90.80250        1.3334467E-17
   90.96400        1.3351209E-17
   91.12550        1.3367532E-17
   91.28700        1.3376185E-17
   91.44850        1.3373369E-17
   91.61000        1.3360677E-17
   91.77150        1.3344657E-17
   91.93300        1.3334120E-17
   92.09450        1.3336296E-17
   92.25600        1.3353552E-17
   92.41750        1.3382129E-17
   92.57900        1.3413560E-17
   92.74050        1.3438224E-17
   92.90200        1.3449510E-17
   93.06350        1.3446776E-17
   93.22500        1.3435738E-17
   93.38650        1.3426056E-17
   93.54800        1.3427089E-17
   93.70950        1.3443670E-17
   93.87100        1.3473746E-17
   94.03250        1.3509010E-17
   94.19400        1.3538311E-17
   94.35550        1.3552422E-17
   94.51700        1.3548080E-17
   94.67850        1.3529512E-17
   94.84000        1.3506672E-17
   95.00150        1.3490939E-17
   95.16300        1.3490093E-17
   95.32450        1.3504797E-17
   95.48600        1.3528185E-17
   95.64750        1.3548792E-17
   95.80900        1.3555604E-17
   95.97050        1.3543040E-17
   96.13200        1.3513634E-17
   96.29350        1.3477203E-17
   96.45500        1.3446782E-17
   96.61650        1.3433079E-17
   96.77800        1.3439883E-17
   96.93950        1.3462448E-17
   97.10100        1.3489601E-17
   97.26250        1.3508676E-17
   97.42400        1.3511114E-17
   97.58550        1.3496268E-17
   97.74700        1.3471710E-17
   97.90850        1.3449906E-17
   98.07000        1.3442687E-17
   98.23150        1.3455934E-17
   98.39300        1.3486846E-17
   98.55450        1.3524980E-17
   98.71600        1.3556651E-17
   98.87750        1.3570752E-17
   99.03900        1.3563495E-17
   99.20050        1.3539978E-17
   99.36200        1.3511921E-17
   99.52350        1.3492550E-17
   99.68500        1.3490876E-17
   99.84650        1.3507820E-17
   100.0080        1.3535900E-17
   100.1695        1.3562577E-17
   100.3310        1.3575816E-17
   100.4925        1.3569429E-17
   100.6540        1.3545865E-17
   100.8155        1.3515240E-17
   100.9770        1.3491027E-17
   101.1385        1.3484271E-17
   101.3000        1.3498858E-17
   101.4615        1.3529868E-17
   101.6230        1.3565746E-17
   101.7845        1.3593308E-17
   101.9460        1.3603448E-17
   102.1075        1.3595005E-17
   102.2690        1.3575150E-17
   102.4305        1.3556097E-17
   102.5920        1.3549628E-17
   102.7535        1.3561791E-17
   102.9150        1.3590158E-17
   103.0765        1.3624794E-17
   103.2380        1.3652535E-17
   103.3995        1.3662686E-17
   103.5610        1.3651642E-17
   103.7225        1.3624419E-17
   103.8840        1.3592454E-17
   104.0455        1.3568638E-17
   104.2070        1.3561798E-17
   104.3685        1.3573044E-17
   104.5300        1.3595550E-17
   104.6915        1.3617831E-17
   104.8530        1.3629008E-17
   105.0145        1.3623734E-17
   105.1760        1.3604585E-17
   105.3375        1.3580925E-17
   105.4990        1.3564733E-17
   105.6605        1.3565290E-17
   105.8220        1.3585036E-17
   105.9835        1.3618440E-17
   106.1450        1.3654323E-17
   106.3065        1.3680618E-17
   106.4680        1.3689464E-17
   106.6295        1.3680407E-17
   106.7910        1.3660348E-17
   106.9525        1.3640306E-17
   107.1140        1.3630458E-17
   107.2755        1.3635651E-17
   107.4370        1.3653344E-17
   107.5985        1.3674882E-17
   107.7600        1.3689505E-17
   107.9215        1.3689273E-17
   108.0830        1.3672745E-17
   108.2445        1.3645750E-17
   108.4060        1.3618889E-17
   108.5675        1.3602913E-17
   108.7290        1.3604013E-17
   108.8905        1.3621129E-17
   109.0520        1.3646491E-17
   109.2135        1.3669135E-17
   109.3750        1.3679825E-17
   109.5365        1.3675189E-17
   109.6980        1.3659187E-17
   109.8595        1.3641270E-17
   110.0210        1.3632067E-17
   110.1825        1.3638542E-17
   110.3440        1.3660816E-17
   110.5055        1.3692110E-17
   110.6670        1.3721794E-17
   110.8285        1.3740187E-17
   110.9900        1.3742893E-17
   111.1515        1.3732722E-17
   111.3130        1.3718311E-17
   111.4745        1.3710086E-17
   111.6360        1.3715402E-17
   111.7975        1.3735075E-17
   111.9590        1.3762915E-17
   112.1205        1.3788467E-17
   112.2820        1.3801751E-17
   112.4435        1.3797829E-17
   112.6050        1.3779131E-17
   112.7665        1.3754441E-17
   112.9280        1.3735008E-17
   113.0895        1.3729505E-17
   113.2510        1.3740119E-17
   113.4125        1.3761586E-17
   113.5740        1.3783602E-17
   113.7355        1.3795563E-17
   113.8970        1.3791479E-17
   114.0585        1.3772809E-17
   114.2200        1.3747893E-17
   114.3815        1.3728192E-17
   114.5430        1.3723027E-17
   114.7045        1.3735215E-17
   114.8660        1.3759629E-17
   115.0275        1.3785412E-17
   115.1890        1.3800868E-17
   115.3505        1.3798857E-17
   115.5120        1.3780180E-17
   115.6735        1.3753397E-17
   115.8350        1.3731063E-17
   115.9965        1.3724034E-17
   116.1580        1.3736442E-17
   116.3195        1.3763643E-17
   116.4810        1.3794133E-17
   116.6425        1.3814642E-17
   116.8040        1.3816128E-17
   116.9655        1.3797919E-17
   117.1270        1.3768120E-17
   117.2885        1.3740008E-17
   117.4500        1.3725999E-17
   117.6115        1.3731943E-17
   117.7730        1.3754338E-17
   117.9345        1.3781819E-17
   118.0960        1.3800327E-17
   118.2575        1.3799648E-17
   118.4190        1.3778337E-17
   118.5805        1.3744734E-17
   118.7420        1.3713513E-17