  -27.90000        8.9613439E-18
  -27.73850        8.9941821E-18
  -27.57700        9.0462349E-18
  -27.41550        9.0974019E-18
  -27.25400        9.1305007E-18
  -27.09250        9.1391306E-18
  -26.93100        9.1302657E-18
  -26.76950        9.1203561E-18
  -26.60800        9.1268900E-18
  -26.44650        9.1595388E-18
  -26.28500        9.2151750E-18
  -26.12350        9.2791864E-18
  -25.96200        9.3324105E-18
  -25.80050        9.3603196E-18
  -25.63900        9.3600003E-18
  -25.47750        9.3415550E-18
  -25.31600        9.3232553E-18
  -25.15450        9.3228177E-18
  -24.99300        9.3489988E-18
  -24.83150        9.3975518E-18
  -24.67000        9.4534576E-18
  -24.50850        9.4982983E-18
  -24.34700        9.5191788E-18
  -24.18550        9.5148774E-18
  -24.02400        9.4962824E-18
  -23.86250        9.4809672E-18
  -23.70100        9.4845944E-18
  -23.53950        9.5133414E-18
  -23.37800        9.5610209E-18
  -23.21650        9.6122308E-18
  -23.05500        9.6499411E-18
  -22.89350        9.6637699E-18
  -22.73200        9.6549232E-18
  -22.57050        9.6354357E-18
  -22.40900        9.6221520E-18
  -22.24750        9.6284667E-18
  -22.08600        9.6578556E-18
  -21.92450        9.7023356E-18
  -21.76300        9.7465178E-18
  -21.60150        9.7751829E-18
  -21.44000        9.7806621E-18
  -21.27850        9.7664123E-18
  -21.11700        9.7451471E-18
  -20.95550        9.7325293E-18
  -20.79400        9.7395844E-18
  -20.63250        9.7675282E-18
  -20.47100        9.8074868E-18
  -20.30950        9.8451094E-18
  -20.14800        9.8677270E-18
  -19.98650        9.8704973E-18
  -19.82500        9.8585544E-18
  -19.66350        9.8442053E-18
  -19.50200        9.8406402E-18
  -19.34050        9.8553259E-18
  -19.17900        9.8863328E-18
  -19.01750        9.9233574E-18
  -18.85600        9.9528820E-18
  -18.69450        9.9648587E-18
  -18.53300        9.9576134E-18
  -18.37150        9.9385842E-18
  -18.21000        9.9205831E-18
  -18.04850        9.9154975E-18
  -17.88700        9.9285720E-18
  -17.72550        9.9560716E-18
  -17.56400        9.9874374E-18
  -17.40250        1.0010750E-17
  -17.24100        1.0018743E-17
  -17.07950        1.0012341E-17
  -16.91800        9.9999866E-18
  -16.75650        9.9931549E-18
  -16.59500        1.0000374E-17
  -16.43350        1.0022770E-17
  -16.27200        1.0053401E-17
  -16.11050        1.0080668E-17
  -15.94900        1.0094099E-17
  -15.78750        1.0089580E-17
  -15.62600        1.0071434E-17
  -15.46450        1.0050331E-17
  -15.30300        1.0038096E-17
  -15.14150        1.0042025E-17
  -14.98000        1.0061518E-17
  -14.81850        1.0088692E-17
  -14.65700        1.0112601E-17
  -14.49550        1.0124937E-17
  -14.33400        1.0124323E-17
  -14.17250        1.0117067E-17
  -14.01100        1.0113979E-17
  -13.84950        1.0124847E-17
  -13.68800        1.0153338E-17
  -13.52650        1.0194845E-17
  -13.36500        1.0238431E-17
  -13.20350        1.0271918E-17
  -13.04200        1.0287669E-17
  -12.88050        1.0286191E-17
  -12.71900        1.0275782E-17
  -12.55750        1.0268360E-17
  -12.39600        1.0273511E-17
  -12.23450        1.0293695E-17
  -12.07300        1.0322977E-17
  -11.91150        1.0349962E-17
  -11.75000        1.0363487E-17
  -11.58850        1.0358282E-17
  -11.42700        1.0337771E-17
  -11.26550        1.0312607E-17
  -11.10400        1.0295598E-17
  -10.94250        1.0295527E-17
  -10.78100        1.0312902E-17
  -10.61950        1.0339753E-17
  -10.45800        1.0363606E-17
  -10.29650        1.0373685E-17
  -10.13500        1.0366291E-17
  -9.973500        1.0346720E-17
  -9.812000        1.0326748E-17
  -9.650500        1.0318911E-17
  -9.489000        1.0330375E-17
  -9.327500        1.0359368E-17
  -9.166000        1.0395930E-17
  -9.004500        1.0426617E-17
  -8.843000        1.0440871E-17
  -8.681500        1.0435983E-17
  -8.520000        1.0418263E-17
  -8.358500        1.0399897E-17
  -8.197000        1.0393002E-17
  -8.035500        1.0403804E-17
  -7.874000        1.0429697E-17
  -7.712500        1.0460625E-17
  -7.551000        1.0484076E-17
  -7.389500        1.0491267E-17
  -7.228000        1.0481558E-17
  -7.066500        1.0462919E-17
  -6.905000        1.0448242E-17
  -6.743500        1.0449243E-17
  -6.582000        1.0470898E-17
  -6.420500        1.0509053E-17
  -6.259000        1.0552372E-17
  -6.097500        1.0587672E-17
  -5.936000        1.0606086E-17
  -5.774500        1.0607101E-17
  -5.613000        1.0598549E-17
  -5.451500        1.0592588E-17
  -5.290000        1.0599656E-17
  -5.128500        1.0623338E-17
  -4.967000        1.0658630E-17
  -4.805500        1.0694423E-17
  -4.644000        1.0718964E-17
  -4.482500        1.0725610E-17
  -4.321000        1.0716096E-17
  -4.159500        1.0699729E-17
  -3.998000        1.0688947E-17
  -3.836500        1.0693401E-17
  -3.675000        1.0715413E-17
  -3.513500        1.0748982E-17
  -3.352000        1.0782737E-17
  -3.190500        1.0805387E-17
  -3.029000        1.0811006E-17
  -2.867500        1.0801650E-17
  -2.706000        1.0786118E-17
  -2.544500        1.0775548E-17
  -2.383000        1.0778001E-17
  -2.221500        1.0794661E-17
  -2.060000        1.0819415E-17
  -1.898500        1.0841967E-17
  -1.737000        1.0852931E-17
  -1.575500        1.0848435E-17
  -1.414000        1.0832034E-17
  -1.252500        1.0813054E-17
  -1.091000        1.0802180E-17
 -0.9295000        1.0806435E-17
 -0.7680000        1.0825941E-17
 -0.6065000        1.0853981E-17
 -0.4450000        1.0880319E-17
 -0.2835000        1.0896120E-17
 -0.1220000        1.0898129E-17
  3.9500002E-02    1.0890097E-17
  0.2010000        1.0880800E-17
  0.3625000        1.0879653E-17
  0.5240000        1.0892075E-17
  0.6855000        1.0916844E-17
  0.8470000        1.0946722E-17
   1.008500        1.0971974E-17
   1.170000        1.0985059E-17
   1.331500        1.0984177E-17
   1.493000        1.0973955E-17
   1.654500        1.0963035E-17
   1.816000        1.0959733E-17
   1.977500        1.0967989E-17
   2.139000        1.0985533E-17
   2.300500        1.1005134E-17
   2.462000        1.1018271E-17
   2.623500        1.1019346E-17
   2.785000        1.1008431E-17
   2.946500        1.0991207E-17
   3.108000        1.0976220E-17
   3.269500        1.0970838E-17
   3.431000        1.0977886E-17
   3.592500        1.0994555E-17
   3.754000        1.1014020E-17
   3.915500        1.1028927E-17
   4.077000        1.1034989E-17
   4.238500        1.1032950E-17
   4.400000        1.1028032E-17
   4.561500        1.1027186E-17
   4.723000        1.1035546E-17
   4.884500        1.1053840E-17
   5.046000        1.1078011E-17
   5.207500        1.1101167E-17
   5.369000        1.1116931E-17
   5.530500        1.1122473E-17
   5.692000        1.1119824E-17
   5.853500        1.1114794E-17
   6.015000        1.1114109E-17
   6.176500        1.1122175E-17
   6.338000        1.1139068E-17
   6.499500        1.1160710E-17
   6.661000        1.1181084E-17
   6.822500        1.1195332E-17
   6.984000        1.1202168E-17
   7.145500        1.1204401E-17
   7.307000        1.1207349E-17
   7.468500        1.1215992E-17
   7.630000        1.1232334E-17
   7.791500        1.1254317E-17
   7.953000        1.1276820E-17
   8.114500        1.1294200E-17
   8.276000        1.1303073E-17
   8.437500        1.1303929E-17
   8.599000        1.1300792E-17
   8.760500        1.1299136E-17
   8.922000        1.1303154E-17
   9.083500        1.1313745E-17
   9.245000        1.1328219E-17
   9.406500        1.1341813E-17
   9.568000        1.1350216E-17
   9.729500        1.1351815E-17
   9.891000        1.1348529E-17
   10.05250        1.1344831E-17
   10.21400        1.1345486E-17
   10.37550        1.1353135E-17
   10.53700        1.1366949E-17
   10.69850        1.1383022E-17
   10.86000        1.1396305E-17
   11.02150        1.1403114E-17
   11.18300        1.1402984E-17
   11.34450        1.1398920E-17
   11.50600        1.1395923E-17
   11.66750        1.1398502E-17
   11.82900        1.1408399E-17
   11.99050        1.1423673E-17
   12.15200        1.1439618E-17
   12.31350        1.1451088E-17
   12.47500        1.1455086E-17
   12.63650        1.1452319E-17
   12.79800        1.1446921E-17
   12.95950        1.1444447E-17
   13.12100        1.1449124E-17
   13.28250        1.1461717E-17
   13.44400        1.1479102E-17
   13.60550        1.1495799E-17
   13.76700        1.1506710E-17
   13.92850        1.1509711E-17
   14.09000        1.1506792E-17
   14.25150        1.1503142E-17
   14.41300        1.1504617E-17
   14.57450        1.1514837E-17
   14.73600        1.1533329E-17
   14.89750        1.1555656E-17
   15.05900        1.1575478E-17
   15.22050        1.1587523E-17
   15.38200        1.1590044E-17
   15.54350        1.1585556E-17
   15.70500        1.1579512E-17
   15.86650        1.1577594E-17
   16.02800        1.1582932E-17
   16.18950        1.1594618E-17
   16.35100        1.1608208E-17
   16.51250        1.1617973E-17
   16.67400        1.1619787E-17
   16.83550        1.1613273E-17
   16.99700        1.1602154E-17
   17.15850        1.1592655E-17
   17.32000        1.1590687E-17
   17.48150        1.1599153E-17
   17.64300        1.1616635E-17
   17.80450        1.1638087E-17
   17.96600        1.1657197E-17
   18.12750        1.1669312E-17
   18.28900        1.1673535E-17
   18.45050        1.1673026E-17
   18.61200        1.1673356E-17
   18.77350        1.1679712E-17
   18.93500        1.1694297E-17
   19.09650        1.1715175E-17
   19.25800        1.1737119E-17
   19.41950        1.1754059E-17
   19.58100        1.1761970E-17
   19.74250        1.1760775E-17
   19.90400        1.1754393E-17
   20.06550        1.1748861E-17
   20.22700        1.1749468E-17
   20.38850        1.1758274E-17
   20.55000        1.1773194E-17
   20.71150        1.1789088E-17
   20.87300        1.1800295E-17
   21.03450        1.1803385E-17
   21.19600        1.1798817E-17
   21.35750        1.1790696E-17
   21.51900        1.1784817E-17
   21.68050        1.1785904E-17
   21.84200        1.1795428E-17
   22.00350        1.1810989E-17
   22.16500        1.1827547E-17
   22.32650        1.1839882E-17
   22.48800        1.1845083E-17
   22.64950        1.1843891E-17
   22.81100        1.1840281E-17
   22.97250        1.1839485E-17
   23.13400        1.1845439E-17
   23.29550        1.1858858E-17
   23.45700        1.1876855E-17
   23.61850        1.1894280E-17
   23.78000        1.1906147E-17
   23.94150        1.1909975E-17
   24.10300        1.1906932E-17
   24.26450        1.1901259E-17
   24.42600        1.1898212E-17
   24.58750        1.1901562E-17
   24.74900        1.1911816E-17
   24.91050        1.1926041E-17
   25.07200        1.1939373E-17
   25.23350        1.1947456E-17
   25.39500        1.1948626E-17
   25.55650        1.1944746E-17
   25.71800        1.1940292E-17
   25.87950        1.1940121E-17
   26.04100        1.1947057E-17
   26.20250        1.1960483E-17
   26.36400        1.1976639E-17
   26.52550        1.1990487E-17
   26.68700        1.1998213E-17
   26.84850        1.1999108E-17
   27.01000        1.1995905E-17
   27.17150        1.1993413E-17
   27.33300        1.1996146E-17
   27.49450        1.2006129E-17
   27.65600        1.2021958E-17
   27.81750        1.2039578E-17
   27.97900        1.2054329E-17
   28.14050        1.2063239E-17
   28.30200        1.2066416E-17
   28.46350        1.2066871E-17
   28.62500        1.2068888E-17
   28.78650        1.2075786E-17
   28.94800        1.2088193E-17
   29.10950        1.2103684E-17
   29.27100        1.2117954E-17
   29.43250        1.2126922E-17
   29.59400        1.2128720E-17
   29.75550        1.2124612E-17
   29.91700        1.2118374E-17
   30.07850        1.2114486E-17
   30.24000        1.2116017E-17
   30.40150        1.2123243E-17
   30.56300        1.2133663E-17
   30.72450        1.2143398E-17
   30.88600        1.2149224E-17
   31.04750        1.2150253E-17
   31.20900        1.2148389E-17
   31.37050        1.2147339E-17
   31.53200        1.2150699E-17
   31.69350        1.2160066E-17
   31.85500        1.2174162E-17
   32.01650        1.2189412E-17
   32.17800        1.2201691E-17
   32.33950        1.2208345E-17
   32.50100        1.2209466E-17
   32.66250        1.2207761E-17
   32.82400        1.2207089E-17
   32.98550        1.2210442E-17
   33.14700        1.2218399E-17
   33.30850        1.2228872E-17
   33.47000        1.2238243E-17
   33.63150        1.2243299E-17
   33.79300        1.2242931E-17
   33.95450        1.2238734E-17
   34.11600        1.2234184E-17
   34.27750        1.2232855E-17
   34.43900        1.2236611E-17
   34.60050        1.2244724E-17
   34.76200        1.2254354E-17
   34.92350        1.2262135E-17
   35.08500        1.2266013E-17
   35.24650        1.2266373E-17
   35.40800        1.2265874E-17
   35.56950        1.2268085E-17
   35.73100        1.2275620E-17
   35.89250        1.2288742E-17
   36.05400        1.2305162E-17
   36.21550        1.2321107E-17
   36.37700        1.2333145E-17
   36.53850        1.2339820E-17
   36.70000        1.2342268E-17
   36.86150        1.2343519E-17
   37.02300        1.2346817E-17
   37.18450        1.2353836E-17
   37.34600        1.2363719E-17
   37.50750        1.2373444E-17
   37.66900        1.2379377E-17
   37.83050        1.2379227E-17
   37.99200        1.2373410E-17
   38.15350        1.2365079E-17
   38.31500        1.2358754E-17
   38.47650        1.2358197E-17
   38.63800        1.2364587E-17
   38.79950        1.2375940E-17
   38.96100        1.2388129E-17
   39.12250        1.2396979E-17
   39.28400        1.2400427E-17
   39.44550        1.2399608E-17
   39.60700        1.2398292E-17
   39.76850        1.2400935E-17
   39.93000        1.2410309E-17
   40.09150        1.2425950E-17
   40.25300        1.2444245E-17
   40.41450        1.2460148E-17
   40.57600        1.2469672E-17
   40.73750        1.2471893E-17
   40.89900        1.2469438E-17
   41.06050        1.2467191E-17
   41.22200        1.2469844E-17
   41.38350        1.2479530E-17
   41.54500        1.2494713E-17
   41.70650        1.2510897E-17
   41.86800        1.2522794E-17
   42.02950        1.2526893E-17
   42.19100        1.2523152E-17
   42.35250        1.2515000E-17
   42.51400        1.2507647E-17
   42.67550        1.2505553E-17
   42.83700        1.2510290E-17
   42.99850        1.2519843E-17
   43.16000        1.2529674E-17
   43.32150        1.2535039E-17
   43.48300        1.2533414E-17
   43.64450        1.2525843E-17
   43.80600        1.2516545E-17
   43.96750        1.2510958E-17
   44.12900        1.2513154E-17
   44.29050        1.2523871E-17
   44.45200        1.2540132E-17
   44.61350        1.2556637E-17
   44.77500        1.2568271E-17
   44.93650        1.2572489E-17
   45.09800        1.2570456E-17
   45.25950        1.2566358E-17
   45.42100        1.2565260E-17
   45.58250        1.2570554E-17
   45.74400        1.2582286E-17
   45.90550        1.2597157E-17
   46.06700        1.2610190E-17
   46.22850        1.2617232E-17
   46.39000        1.2617017E-17
   46.55150        1.2611790E-17
   46.71300        1.2606178E-17
   46.87450        1.2604920E-17
   47.03600        1.2610550E-17
   47.19750        1.2622208E-17
   47.35900        1.2636120E-17
   47.52050        1.2647481E-17
   47.68200        1.2652808E-17
   47.84350        1.2651606E-17
   48.00500        1.2646563E-17
   48.16650        1.2642229E-17
   48.32800        1.2642831E-17
   48.48950        1.2650324E-17
   48.65100        1.2663559E-17
   48.81250        1.2678965E-17
   48.97400        1.2692325E-17
   49.13550        1.2700808E-17
   49.29700        1.2704246E-17
   49.45850        1.2705077E-17
   49.62000        1.2707021E-17
   49.78150        1.2713138E-17
   49.94300        1.2724232E-17
   50.10450        1.2738356E-17
   50.26600        1.2751683E-17
   50.42750        1.2760284E-17
   50.58900        1.2761989E-17
   50.75050        1.2757425E-17
   50.91200        1.2749733E-17
   51.07350        1.2743118E-17
   51.23500        1.2740907E-17
   51.39650        1.2744074E-17
   51.55800        1.2750910E-17
   51.71950        1.2757993E-17
   51.88100        1.2761977E-17
   52.04250        1.2761294E-17
   52.20400        1.2756970E-17
   52.36550        1.2752115E-17
   52.52700        1.2750371E-17
   52.68850        1.2754091E-17
   52.85000        1.2763130E-17
   53.01150        1.2774861E-17
   53.17300        1.2785408E-17
   53.33450        1.2791499E-17
   53.49600        1.2792036E-17
   53.65750        1.2788629E-17
   53.81900        1.2784825E-17
   53.98050        1.2784422E-17
   54.14200        1.2789681E-17
   54.30350        1.2800282E-17
   54.46500        1.2813512E-17
   54.62650        1.2825578E-17
   54.78800        1.2833404E-17
   54.94950        1.2836044E-17
   55.11100        1.2835059E-17
   55.27250        1.2833686E-17
   55.43400        1.2835215E-17
   55.59550        1.2841345E-17
   55.75700        1.2851316E-17
   55.91850        1.2862225E-17
   56.08000        1.2870387E-17
   56.24150        1.2873104E-17
   56.40300        1.2870015E-17
   56.56450        1.2863381E-17
   56.72600        1.2857154E-17
   56.88750        1.2855225E-17
   57.04900        1.2859670E-17
   57.21050        1.2869810E-17
   57.37200        1.2882534E-17
   57.53350        1.2893756E-17
   57.69500        1.2900346E-17
   57.85650        1.2901603E-17
   58.01800        1.2899566E-17
   58.17950        1.2897996E-17
   58.34100        1.2900496E-17
   58.50250        1.2908695E-17
   58.66400        1.2921352E-17
   58.82550        1.2934879E-17
   58.98700        1.2945025E-17
   59.14850        1.2948924E-17
   59.31000        1.2946504E-17
   59.47150        1.2940579E-17
   59.63300        1.2935525E-17
   59.79450        1.2935213E-17
   59.95600        1.2941168E-17
   60.11750        1.2951845E-17
   60.27900        1.2963380E-17
   60.44050        1.2971437E-17
   60.60200        1.2973284E-17
   60.76350        1.2969101E-17
   60.92500        1.2961908E-17
   61.08650        1.2956160E-17
   61.24800        1.2955670E-17
   61.40950        1.2961850E-17
   61.57100        1.2973095E-17
   61.73250        1.2985597E-17
   61.89400        1.2995218E-17
   62.05550        1.2999502E-17
   62.21700        1.2998899E-17
   62.37850        1.2996571E-17
   62.54000        1.2996848E-17
   62.70150        1.3003068E-17
   62.86300        1.3015817E-17
   63.02450        1.3032440E-17
   63.18600        1.3048114E-17
   63.34750        1.3058005E-17
   63.50900        1.3059495E-17
   63.67050        1.3053404E-17
   63.83200        1.3043590E-17
   63.99350        1.3035107E-17
   64.15500        1.3031799E-17
   64.31650        1.3034508E-17
   64.47800        1.3040784E-17
   64.63950        1.3046241E-17
   64.80100        1.3046896E-17
   64.96250        1.3041301E-17
   65.12400        1.3031431E-17
   65.28550        1.3021849E-17
   65.44700        1.3017544E-17
   65.60850        1.3021509E-17
   65.77000        1.3033248E-17
   65.93150        1.3048933E-17
   66.09300        1.3063155E-17
   66.25450        1.3071431E-17
   66.41600        1.3072269E-17
   66.57750        1.3067799E-17
   66.73900        1.3062713E-17
   66.90050        1.3061983E-17
   67.06200        1.3068478E-17
   67.22350        1.3081602E-17
   67.38500        1.3097589E-17
   67.54650        1.3111321E-17
   67.70800        1.3118817E-17
   67.86950        1.3119176E-17
   68.03100        1.3115051E-17
   68.19250        1.3111410E-17
   68.35400        1.3113128E-17
   68.51550        1.3122567E-17
   68.67700        1.3138307E-17
   68.83850        1.3155683E-17
   69.00000        1.3168907E-17
   69.16150        1.3173807E-17
   69.32300        1.3169856E-17
   69.48450        1.3160496E-17
   69.64600        1.3151562E-17
   69.80750        1.3148526E-17
   69.96900        1.3153875E-17
   70.13050        1.3165918E-17
   70.29200        1.3179599E-17
   70.45350        1.3188982E-17
   70.61500        1.3190184E-17
   70.77650        1.3183336E-17
   70.93800        1.3172589E-17
   71.09950        1.3164149E-17
   71.26100        1.3163277E-17
   71.42250        1.3171717E-17
   71.58400        1.3186840E-17
   71.74550        1.3202899E-17
   71.90700        1.3213836E-17
   72.06850        1.3216241E-17
   72.23000        1.3211037E-17
   72.39150        1.3203059E-17
   72.55300        1.3198698E-17
   72.71450        1.3202770E-17
   72.87600        1.3216107E-17
   73.03750        1.3235060E-17
   73.19900        1.3253161E-17
   73.36050        1.3264151E-17
   73.52200        1.3264924E-17
   73.68350        1.3256943E-17
   73.84500        1.3245464E-17
   74.00650        1.3236902E-17
   74.16800        1.3235663E-17
   74.32950        1.3241975E-17
   74.49100        1.3251817E-17
   74.65250        1.3259003E-17
   74.81400        1.3258403E-17
   74.97550        1.3248710E-17
   75.13700        1.3233331E-17
   75.29850        1.3218930E-17
   75.46000        1.3212276E-17
   75.62150        1.3216970E-17
   75.78300        1.3231670E-17
   75.94450        1.3250726E-17
   76.10600        1.3266938E-17
   76.26750        1.3275044E-17
   76.42900        1.3274210E-17
   76.59050        1.3268234E-17
   76.75200        1.3263385E-17
   76.91350        1.3264987E-17
   77.07500        1.3274518E-17
   77.23650        1.3288736E-17
   77.39800        1.3301299E-17
   77.55950        1.3306054E-17
   77.72100        1.3300297E-17
   77.88250        1.3286329E-17
   78.04400        1.3270474E-17
   78.20550        1.3260046E-17
   78.36700        1.3259788E-17
   78.52850        1.3269614E-17
   78.69000        1.3284770E-17
   78.85150        1.3298359E-17
   79.01300        1.3304914E-17
   79.17450        1.3303226E-17
   79.33600        1.3296944E-17
   79.49750        1.3292659E-17
   79.65900        1.3296437E-17
   79.82050        1.3310564E-17
   79.98200        1.3332208E-17
   80.14350        1.3354683E-17
   80.30500        1.3370739E-17
   80.46650        1.3376210E-17
   80.62800        1.3372153E-17
   80.78950        1.3364353E-17
   80.95100        1.3360402E-17
   81.11250        1.3365803E-17
   81.27400        1.3381093E-17
   81.43550        1.3401481E-17
   81.59700        1.3419240E-17
   81.75850        1.3427667E-17
   81.92000        1.3424595E-17
   82.08150        1.3413624E-17
   82.24300        1.3402386E-17
   82.40450        1.3398700E-17
   82.56600        1.3406551E-17
   82.72750        1.3423987E-17
   82.88900        1.3444039E-17
   83.05050        1.3458247E-17
   83.21200        1.3460984E-17
   83.37350        1.3452380E-17
   83.53500        1.3438291E-17
   83.69650        1.3427313E-17
   83.85800        1.3426353E-17
   84.01950        1.3437020E-17
   84.18100        1.3454707E-17
   84.34250        1.3470862E-17
   84.50400        1.3477303E-17
   84.66550        1.3470409E-17
   84.82700        1.3453018E-17
   84.98850        1.3433099E-17
   85.15000        1.3419820E-17
   85.31150        1.3419018E-17
   85.47300        1.3430363E-17
   85.63450        1.3447643E-17
   85.79600        1.3462010E-17
   85.95750        1.3466545E-17
   86.11900        1.3459814E-17
   86.28050        1.3446598E-17
   86.44200        1.3435422E-17
   86.60350        1.3434120E-17
   86.76500        1.3445694E-17
   86.92650        1.3466564E-17
   87.08800        1.3488151E-17
   87.24950        1.3501025E-17
   87.41100        1.3499545E-17
   87.57250        1.3484659E-17
   87.73400        1.3463442E-17
   87.89550        1.3445597E-17
   88.05700        1.3438655E-17
   88.21850        1.3444335E-17
   88.38000        1.3457878E-17
   88.54150        1.3470718E-17
   88.70300        1.3475110E-17
   88.86450        1.3468346E-17
   89.02600        1.3454357E-17
   89.18750        1.3441861E-17
   89.34900        1.3439954E-17
   89.51050        1.3453403E-17
   89.67200        1.3480057E-17
   89.83350        1.3511718E-17
   89.99500        1.3538047E-17
   90.15650        1.3551554E-17
   90.31800        1.3551126E-17
   90.47950        1.3542322E-17
   90.64100        1.3534305E-17
   90.80250        1.3535004E-17
   90.96400        1.3546973E-17
   91.12550        1.3566081E-17
   91.28700        1.3583656E-17
   91.44850        1.3591010E-17
   91.61000        1.3583983E-17
   91.77150        1.3565232E-17
   91.93300        1.3543081E-17
   92.09450        1.3527534E-17
   92.25600        1.3525434E-17
   92.41750        1.3537209E-17
   92.57900        1.3556800E-17
   92.74050        1.3574795E-17
   92.90200        1.3583191E-17
   93.06350        1.3579387E-17
   93.22500        1.3567430E-17
   93.38650        1.3555924E-17
   93.54800        1.3553630E-17
   93.70950        1.3564996E-17
   93.87100        1.3587827E-17
   94.03250        1.3614264E-17
   94.19400        1.3634578E-17
   94.35550        1.3641911E-17
   94.51700        1.3635572E-17
   94.67850        1.3621275E-17
   94.84000        1.3608200E-17
   95.00150        1.3604356E-17
   95.16300        1.3612591E-17
   95.32450        1.3629231E-17
   95.48600        1.3646016E-17
   95.64750        1.3654363E-17
   95.80900        1.3649777E-17
   95.97050        1.3634197E-17
   96.13200        1.3615112E-17
   96.29350        1.3601908E-17
   96.45500        1.3601284E-17
   96.61650        1.3614040E-17
   96.77800        1.3634804E-17
   96.93950        1.3654788E-17
   97.10100        1.3666143E-17
   97.26250        1.3665723E-17
   97.42400        1.3656411E-17
   97.58550        1.3645415E-17
   97.74700        1.3640465E-17
   97.90850        1.3645846E-17
   98.07000        1.3660270E-17
   98.23150        1.3677575E-17
   98.39300        1.3689891E-17
   98.55450        1.3691617E-17
   98.71600        1.3682254E-17
   98.87750        1.3666693E-17
   99.03900        1.3652860E-17
   99.20050        1.3647918E-17
   99.36200        1.3654897E-17
   99.52350        1.3671381E-17
   99.68500        1.3690875E-17
   99.84650        1.3706081E-17
   100.0080        1.3712472E-17
   100.1695        1.3710361E-17
   100.3310        1.3704489E-17
   100.4925        1.3701376E-17
   100.6540        1.3705819E-17
   100.8155        1.3718309E-17
   100.9770        1.3734684E-17
   101.1385        1.3748161E-17
   101.3000        1.3752740E-17
   101.4615        1.3746221E-17
   101.6230        1.3731345E-17
   101.7845        1.3714486E-17
   101.9460        1.3702570E-17
   102.1075        1.3699793E-17
   102.2690        1.3705779E-17
   102.4305        1.3716047E-17
   102.5920        1.3724512E-17
   102.7535        1.3726701E-17
   102.9150        1.3722034E-17
   103.0765        1.3714052E-17
   103.2380        1.3708513E-17
   103.3995        1.3710354E-17
   103.5610        1.3721113E-17
   103.7225        1.3738060E-17
   103.8840        1.3755480E-17
   104.0455        1.3767434E-17
   104.2070        1.3770581E-17
   104.3685        1.3765699E-17
   104.5300        1.3757161E-17
   104.6915        1.3750666E-17
   104.8530        1.3750384E-17
   105.0145        1.3756926E-17
   105.1760        1.3767123E-17
   105.3375        1.3775691E-17
   105.4990        1.3777957E-17
   105.6605        1.3772253E-17
   105.8220        1.3760816E-17
   105.9835        1.3748754E-17
   106.1450        1.3741589E-17
   106.3065        1.3742629E-17
   106.4680        1.3751435E-17
   106.6295        1.3764161E-17
   106.7910        1.3775558E-17
   106.9525        1.3781649E-17
   107.1140        1.3781710E-17
   107.2755        1.3778586E-17
   107.4370        1.3777170E-17
   107.5985        1.3781832E-17
   107.7600        1.3794102E-17
   107.9215        1.3811776E-17
   108.0830        1.3829879E-17
   108.2445        1.3842987E-17
   108.4060        1.3847780E-17
   108.5675        1.3844534E-17
   108.7290        1.3836875E-17
   108.8905        1.3829927E-17
   109.0520        1.3827804E-17
   109.2135        1.3831701E-17
   109.3750        1.3839499E-17
   109.5365        1.3847032E-17
   109.6980        1.3850339E-17
   109.8595        1.3847771E-17
   110.0210        1.3840896E-17
   110.1825        1.3833789E-17
   110.3440        1.3831050E-17
   110.5055        1.3835530E-17
   110.6670        1.3846891E-17
   110.8285        1.3861685E-17
   110.9900        1.3874938E-17
   111.1515        1.3882466E-17
   111.3130        1.3882804E-17
   111.4745        1.3877811E-17
   111.6360        1.3871677E-17
   111.7975        1.3868821E-17
   111.9590        1.3871704E-17
   112.1205        1.3879642E-17
   112.2820        1.3889196E-17
   112.4435        1.3895948E-17
   112.6050        1.3896806E-17
   112.7665        1.3891668E-17
   112.9280        1.3883578E-17
   113.0895        1.3877301E-17
   113.2510        1.3876982E-17
   113.4125        1.3884069E-17
   113.5740        1.3896538E-17
   113.7355        1.3909803E-17
   113.8970        1.3918889E-17
   114.0585        1.3920819E-17
   114.2200        1.3916025E-17
   114.3815        1.3908092E-17
   114.5430        1.3901951E-17
   114.7045        1.3901407E-17
   114.8660        1.3907224E-17
   115.0275        1.3916727E-17
   115.1890        1.3925126E-17
   115.3505        1.3927907E-17
   115.5120        1.3923111E-17
   115.6735        1.3912397E-17
   115.8350        1.3900328E-17
   115.9965        1.3892224E-17
   116.1580        1.3891582E-17
   116.3195        1.3898361E-17
   116.4810        1.3908969E-17
   116.6425        1.3918015E-17
   116.8040        1.3920982E-17
   116.9655        1.3916510E-17
   117.1270        1.3907153E-17
   117.2885        1.3898204E-17
   117.4500        1.3895150E-17
   117.6115        1.3900955E-17
   117.7730        1.3914554E-17
   117.9345        1.3931277E-17
   118.0960        1.3945072E-17
   118.2575        1.3951428E-17
   118.4190        1.3949541E-17
   118.5805        1.3942640E-17
   118.7420        1.3936286E-17