  -27.90000        5.7691373E-18
  -27.73850        5.7713165E-18
  -27.57700        5.7747782E-18
  -27.41550        5.7783239E-18
  -27.25400        5.7811446E-18
  -27.09250        5.7832146E-18
  -26.93100        5.7851391E-18
  -26.76950        5.7876235E-18
  -26.60800        5.7909281E-18
  -26.44650        5.7946901E-18
  -26.28500        5.7981969E-18
  -26.12350        5.8008956E-18
  -25.96200        5.8027717E-18
  -25.80050        5.8043284E-18
  -25.63900        5.8062007E-18
  -25.47750        5.8086901E-18
  -25.31600        5.8115733E-18
  -25.15450        5.8143034E-18
  -24.99300        5.8164557E-18
  -24.83150        5.8180567E-18
  -24.67000        5.8195415E-18
  -24.50850        5.8213903E-18
  -24.34700        5.8237271E-18
  -24.18550        5.8261999E-18
  -24.02400        5.8282418E-18
  -23.86250        5.8295057E-18
  -23.70100        5.8301662E-18
  -23.53950        5.8308429E-18
  -23.37800        5.8321804E-18
  -23.21650        5.8343803E-18
  -23.05500        5.8370145E-18
  -22.89350        5.8392814E-18
  -22.73200        5.8405461E-18
  -22.57050        5.8407972E-18
  -22.40900        5.8406801E-18
  -22.24750        5.8410697E-18
  -22.08600        5.8424784E-18
  -21.92450        5.8447048E-18
  -21.76300        5.8469861E-18
  -21.60150        5.8485251E-18
  -21.44000        5.8490301E-18
  -21.27850        5.8488940E-18
  -21.11700        5.8488998E-18
  -20.95550        5.8496662E-18
  -20.79400        5.8512229E-18
  -20.63250        5.8529985E-18
  -20.47100        5.8542393E-18
  -20.30950        5.8545590E-18
  -20.14800        5.8542513E-18
  -19.98650        5.8541338E-18
  -19.82500        5.8550272E-18
  -19.66350        5.8572283E-18
  -19.50200        5.8603319E-18
  -19.34050        5.8635099E-18
  -19.17900        5.8660274E-18
  -19.01750        5.8676392E-18
  -18.85600        5.8686066E-18
  -18.69450        5.8693911E-18
  -18.53300        5.8702634E-18
  -18.37150        5.8711307E-18
  -18.21000        5.8716808E-18
  -18.04850        5.8717081E-18
  -17.88700        5.8713693E-18
  -17.72550        5.8711551E-18
  -17.56400        5.8715894E-18
  -17.40250        5.8728670E-18
  -17.24100        5.8747157E-18
  -17.07950        5.8765893E-18
  -16.91800        5.8780732E-18
  -16.75650        5.8791845E-18
  -16.59500        5.8803422E-18
  -16.43350        5.8820028E-18
  -16.27200        5.8842423E-18
  -16.11050        5.8865911E-18
  -15.94900        5.8882720E-18
  -15.78750        5.8886880E-18
  -15.62600        5.8878426E-18
  -15.46450        5.8863922E-18
  -15.30300        5.8852854E-18
  -15.14150        5.8852101E-18
  -14.98000        5.8861891E-18
  -14.81850        5.8876036E-18
  -14.65700        5.8886173E-18
  -14.49550        5.8887273E-18
  -14.33400        5.8880738E-18
  -14.17250        5.8873133E-18
  -14.01100        5.8871582E-18
  -13.84950        5.8879254E-18
  -13.68800        5.8893866E-18
  -13.52650        5.8910132E-18
  -13.36500        5.8923942E-18
  -13.20350        5.8935299E-18
  -13.04200        5.8948083E-18
  -12.88050        5.8966997E-18
  -12.71900        5.8994050E-18
  -12.55750        5.9027216E-18
  -12.39600        5.9062131E-18
  -12.23450        5.9095607E-18
  -12.07300        5.9128243E-18
  -11.91150        5.9164102E-18
  -11.75000        5.9207429E-18
  -11.58850        5.9258719E-18
  -11.42700        5.9313147E-18
  -11.26550        5.9362641E-18
  -11.10400        5.9400349E-18
  -10.94250        5.9424391E-18
  -10.78100        5.9438349E-18
  -10.61950        5.9448255E-18
  -10.45800        5.9458255E-18
  -10.29650        5.9467946E-18
  -10.13500        5.9473049E-18
  -9.973500        5.9468860E-18
  -9.812000        5.9453970E-18
  -9.650500        5.9431604E-18
  -9.489000        5.9407739E-18
  -9.327500        5.9387205E-18
  -9.166000        5.9370715E-18
  -9.004500        5.9355031E-18
  -8.843000        5.9336114E-18
  -8.681500        5.9312804E-18
  -8.520000        5.9288170E-18
  -8.358500        5.9267375E-18
  -8.197000        5.9253673E-18
  -8.035500        5.9245591E-18
  -7.874000        5.9237621E-18
  -7.712500        5.9224155E-18
  -7.551000        5.9204096E-18
  -7.389500        5.9182767E-18
  -7.228000        5.9169532E-18
  -7.066500        5.9172291E-18
  -6.905000        5.9192222E-18
  -6.743500        5.9222327E-18
  -6.582000        5.9250960E-18
  -6.420500        5.9268351E-18
  -6.259000        5.9272115E-18
  -6.097500        5.9268157E-18
  -5.936000        5.9266664E-18
  -5.774500        5.9275788E-18
  -5.613000        5.9297211E-18
  -5.451500        5.9326039E-18
  -5.290000        5.9354630E-18
  -5.128500        5.9377539E-18
  -4.967000        5.9394335E-18
  -4.805500        5.9408881E-18
  -4.644000        5.9426115E-18
  -4.482500        5.9448863E-18
  -4.321000        5.9476710E-18
  -4.159500        5.9507435E-18
  -3.998000        5.9539352E-18
  -3.836500        5.9572295E-18
  -3.675000        5.9606519E-18
  -3.513500        5.9640438E-18
  -3.352000        5.9669679E-18
  -3.190500        5.9688910E-18
  -3.029000        5.9695582E-18
  -2.867500        5.9692827E-18
  -2.706000        5.9689039E-18
  -2.544500        5.9693539E-18
  -2.383000        5.9710880E-18
  -2.221500        5.9737371E-18
  -2.060000        5.9762484E-18
  -1.898500        5.9774677E-18
  -1.737000        5.9768374E-18
  -1.575500        5.9747814E-18
  -1.414000        5.9725174E-18
  -1.252500        5.9713858E-18
  -1.091000        5.9721026E-18
 -0.9295000        5.9743901E-18
 -0.7680000        5.9771992E-18
 -0.6065000        5.9793607E-18
 -0.4450000        5.9802445E-18
 -0.2835000        5.9800299E-18
 -0.1220000        5.9794781E-18
  3.9500002E-02    5.9794186E-18
  0.2010000        5.9803012E-18
  0.3625000        5.9820709E-18
  0.5240000        5.9843692E-18
  0.6855000        5.9868553E-18
  0.8470000        5.9893952E-18
   1.008500        5.9920153E-18
   1.170000        5.9947090E-18
   1.331500        5.9973138E-18
   1.493000        5.9996005E-18
   1.654500        6.0015175E-18
   1.816000        6.0033584E-18
   1.977500        6.0056605E-18
   2.139000        6.0088253E-18
   2.300500        6.0127155E-18
   2.462000        6.0165470E-18
   2.623500        6.0192250E-18
   2.785000        6.0199529E-18
   2.946500        6.0187403E-18
   3.108000        6.0164457E-18
   3.269500        6.0143057E-18
   3.431000        6.0132072E-18
   3.592500        6.0131531E-18
   3.754000        6.0132581E-18
   3.915500        6.0123007E-18
   4.077000        6.0094796E-18
   4.238500        6.0048953E-18
   4.400000        5.9994732E-18
   4.561500        5.9943922E-18
   4.723000        5.9904209E-18
   4.884500        5.9875990E-18
   5.046000        5.9854231E-18
   5.207500        5.9833522E-18
   5.369000        5.9812458E-18
   5.530500        5.9794351E-18
   5.692000        5.9784226E-18
   5.853500        5.9784611E-18
   6.015000        5.9793516E-18
   6.176500        5.9806002E-18
   6.338000        5.9818100E-18
   6.499500        5.9830032E-18
   6.661000        5.9846050E-18
   6.822500        5.9870923E-18
   6.984000        5.9905619E-18
   7.145500        5.9945564E-18
   7.307000        5.9983134E-18
   7.468500        6.0012793E-18
   7.630000        6.0035057E-18
   7.791500        6.0056398E-18
   7.953000        6.0084778E-18
   8.114500        6.0124016E-18
   8.276000        6.0170764E-18
   8.437500        6.0216387E-18
   8.599000        6.0252456E-18
   8.760500        6.0276060E-18
   8.922000        6.0291487E-18
   9.083500        6.0307034E-18
   9.245000        6.0329202E-18
   9.406500        6.0358368E-18
   9.568000        6.0388916E-18
   9.729500        6.0413641E-18
   9.891000        6.0429125E-18
   10.05250        6.0438129E-18
   10.21400        6.0447187E-18
   10.37550        6.0461328E-18
   10.53700        6.0479782E-18
   10.69850        6.0496065E-18
   10.86000        6.0502381E-18
   11.02150        6.0495300E-18
   11.18300        6.0478587E-18
   11.34450        6.0461195E-18
   11.50600        6.0451575E-18
   11.66750        6.0452262E-18
   11.82900        6.0458420E-18
   11.99050        6.0461286E-18
   12.15200        6.0454263E-18
   12.31350        6.0437364E-18
   12.47500        6.0417020E-18
   12.63650        6.0401465E-18
   12.79800        6.0395083E-18
   12.95950        6.0395707E-18
   13.12100        6.0396601E-18
   13.28250        6.0391414E-18
   13.44400        6.0378485E-18
   13.60550        6.0361421E-18
   13.76700        6.0345936E-18
   13.92850        6.0335546E-18
   14.09000        6.0329372E-18
   14.25150        6.0323652E-18
   14.41300        6.0315669E-18
   14.57450        6.0306992E-18
   14.73600        6.0303224E-18
   14.89750        6.0310326E-18
   15.05900        6.0330037E-18
   15.22050        6.0358038E-18
   15.38200        6.0386497E-18
   15.54350        6.0409550E-18
   15.70500        6.0427508E-18
   15.86650        6.0446806E-18
   16.02800        6.0475175E-18
   16.18950        6.0515417E-18
   16.35100        6.0562148E-18
   16.51250        6.0604004E-18
   16.67400        6.0630072E-18
   16.83550        6.0636429E-18
   16.99700        6.0628430E-18
   17.15850        6.0617160E-18
   17.32000        6.0612296E-18
   17.48150        6.0616085E-18
   17.64300        6.0622421E-18
   17.80450        6.0621536E-18
   17.96600        6.0607019E-18
   18.12750        6.0580479E-18
   18.28900        6.0550634E-18
   18.45050        6.0527858E-18
   18.61200        6.0518018E-18
   18.77350        6.0519727E-18
   18.93500        6.0526547E-18
   19.09650        6.0532188E-18
   19.25800        6.0535000E-18
   19.41950        6.0538702E-18
   19.58100        6.0549323E-18
   19.74250        6.0570693E-18
   19.90400        6.0601928E-18
   20.06550        6.0638423E-18
   20.22700        6.0675311E-18
   20.38850        6.0710702E-18
   20.55000        6.0745994E-18
   20.71150        6.0783250E-18
   20.87300        6.0821974E-18
   21.03450        6.0858002E-18
   21.19600        6.0885779E-18
   21.35750        6.0902149E-18
   21.51900        6.0908762E-18
   21.68050        6.0910921E-18
   21.84200        6.0913502E-18
   22.00350        6.0916868E-18
   22.16500        6.0915925E-18
   22.32650        6.0903439E-18
   22.48800        6.0875642E-18
   22.64950        6.0836264E-18
   22.81100        6.0795827E-18
   22.97250        6.0766226E-18
   23.13400        6.0753653E-18
   23.29550        6.0754691E-18
   23.45700        6.0758277E-18
   23.61850        6.0752532E-18
   23.78000        6.0732076E-18
   23.94150        6.0701152E-18
   24.10300        6.0670596E-18
   24.26450        6.0650884E-18
   24.42600        6.0645772E-18
   24.58750        6.0650549E-18
   24.74900        6.0655624E-18
   24.91050        6.0652940E-18
   25.07200        6.0640896E-18
   25.23350        6.0624849E-18
   25.39500        6.0613281E-18
   25.55650        6.0612491E-18
   25.71800        6.0623426E-18
   25.87950        6.0642418E-18
   26.04100        6.0664524E-18
   26.20250        6.0686776E-18
   26.36400        6.0708750E-18
   26.52550        6.0730711E-18
   26.68700        6.0751441E-18
   26.84850        6.0767984E-18
   27.01000        6.0777861E-18
   27.17150        6.0781877E-18
   27.33300        6.0785041E-18
   27.49450        6.0794160E-18
   27.65600        6.0813392E-18
   27.81750        6.0840685E-18
   27.97900        6.0868094E-18
   28.14050        6.0886296E-18
   28.30200        6.0890763E-18
   28.46350        6.0885514E-18
   28.62500        6.0881395E-18
   28.78650        6.0889737E-18
   28.94800        6.0915102E-18
   29.10950        6.0952052E-18
   29.27100        6.0988076E-18
   29.43250        6.1010857E-18
   29.59400        6.1015270E-18
   29.75550        6.1005724E-18
   29.91700        6.0992564E-18
   30.07850        6.0985334E-18
   30.24000        6.0987162E-18
   30.40150        6.0993817E-18
   30.56300        6.0997614E-18
   30.72450        6.0993072E-18
   30.88600        6.0980454E-18
   31.04750        6.0964894E-18
   31.20900        6.0952239E-18
   31.37050        6.0944980E-18
   31.53200        6.0941262E-18
   31.69350        6.0937465E-18
   31.85500        6.0931952E-18
   32.01650        6.0926732E-18
   32.17800        6.0925740E-18
   32.33950        6.0931166E-18
   32.50100        6.0940927E-18
   32.66250        6.0949629E-18
   32.82400        6.0952685E-18
   32.98550        6.0950576E-18
   33.14700        6.0949943E-18
   33.30850        6.0960151E-18
   33.47000        6.0987166E-18
   33.63150        6.1028939E-18
   33.79300        6.1075542E-18
   33.95450        6.1114581E-18
   34.11600        6.1138404E-18
   34.27750        6.1148421E-18
   34.43900        6.1153488E-18
   34.60050        6.1163521E-18
   34.76200        6.1182625E-18
   34.92350        6.1206394E-18
   35.08500        6.1224906E-18
   35.24650        6.1229282E-18
   35.40800        6.1217280E-18
   35.56950        6.1194342E-18
   35.73100        6.1169675E-18
   35.89250        6.1150340E-18
   36.05400        6.1137357E-18
   36.21550        6.1126344E-18
   36.37700        6.1111744E-18
   36.53850        6.1091337E-18
   36.70000        6.1067767E-18
   36.86150        6.1046157E-18
   37.02300        6.1030023E-18
   37.18450        6.1018959E-18
   37.34600        6.1009690E-18
   37.50750        6.0999632E-18
   37.66900        6.0989718E-18
   37.83050        6.0984085E-18
   37.99200        6.0986662E-18
   38.15350        6.0997378E-18
   38.31500        6.1011113E-18
   38.47650        6.1020680E-18
   38.63800        6.1022173E-18
   38.79950        6.1018814E-18
   38.96100        6.1020187E-18
   39.12250        6.1036743E-18
   39.28400        6.1072862E-18
   39.44550        6.1123159E-18
   39.60700        6.1174837E-18
   39.76850        6.1214782E-18
   39.93000        6.1236921E-18
   40.09150        6.1245114E-18
   40.25300        6.1249693E-18
   40.41450        6.1260198E-18
   40.57600        6.1278996E-18
   40.73750        6.1299874E-18
   40.89900        6.1312265E-18
   41.06050        6.1308038E-18
   41.22200        6.1286540E-18
   41.38350        6.1254867E-18
   41.54500        6.1223653E-18
   41.70650        6.1201390E-18
   41.86800        6.1190979E-18
   42.02950        6.1190107E-18
   42.19100        6.1194342E-18
   42.35250        6.1200281E-18
   42.51400        6.1206493E-18
   42.67550        6.1212441E-18
   42.83700        6.1217073E-18
   42.99850        6.1218980E-18
   43.16000        6.1218123E-18
   43.32150        6.1217412E-18
   43.48300        6.1222218E-18
   43.64450        6.1237215E-18
   43.80600        6.1262448E-18
   43.96750        6.1291552E-18
   44.12900        6.1313985E-18
   44.29050        6.1320714E-18
   44.45200        6.1310002E-18
   44.61350        6.1289493E-18
   44.77500        6.1272602E-18
   44.93650        6.1271038E-18
   45.09800        6.1287809E-18
   45.25950        6.1315156E-18
   45.42100        6.1338950E-18
   45.58250        6.1346800E-18
   45.74400        6.1335112E-18
   45.90550        6.1310751E-18
   46.06700        6.1286771E-18
   46.22850        6.1274922E-18
   46.39000        6.1279637E-18
   46.55150        6.1296619E-18
   46.71300        6.1316401E-18
   46.87450        6.1330198E-18
   47.03600        6.1334442E-18
   47.19750        6.1331600E-18
   47.35900        6.1327555E-18
   47.52050        6.1327915E-18
   47.68200        6.1335558E-18
   47.84350        6.1350398E-18
   48.00500        6.1370474E-18
   48.16650        6.1392824E-18
   48.32800        6.1413537E-18
   48.48950        6.1427665E-18
   48.65100        6.1430097E-18
   48.81250        6.1417916E-18
   48.97400        6.1392828E-18
   49.13550        6.1361978E-18
   49.29700        6.1335600E-18
   49.45850        6.1322274E-18
   49.62000        6.1324275E-18
   49.78150        6.1335910E-18
   49.94300        6.1346535E-18
   50.10450        6.1346717E-18
   50.26600        6.1334177E-18
   50.42750        6.1315574E-18
   50.58900        6.1302818E-18
   50.75050        6.1306073E-18
   50.91200        6.1327584E-18
   51.07350        6.1360212E-18
   51.23500        6.1391418E-18
   51.39650        6.1410248E-18
   51.55800        6.1413040E-18
   51.71950        6.1404739E-18
   51.88100        6.1395396E-18
   52.04250        6.1394234E-18
   52.20400        6.1405066E-18
   52.36550        6.1425237E-18
   52.52700        6.1448278E-18
   52.68850        6.1467990E-18
   52.85000        6.1481179E-18
   53.01150        6.1487987E-18
   53.17300        6.1490249E-18
   53.33450        6.1489906E-18
   53.49600        6.1488525E-18
   53.65750        6.1487838E-18
   53.81900        6.1489935E-18
   53.98050        6.1496250E-18
   54.14200        6.1505821E-18
   54.30350        6.1514329E-18
   54.46500        6.1515362E-18
   54.62650        6.1503757E-18
   54.78800        6.1479359E-18
   54.94950        6.1448456E-18
   55.11100        6.1421511E-18
   55.27250        6.1407903E-18
   55.43400        6.1410633E-18
   55.59550        6.1424501E-18
   55.75700        6.1439138E-18
   55.91850        6.1445379E-18
   56.08000        6.1441040E-18
   56.24150        6.1432400E-18
   56.40300        6.1430303E-18
   56.56450        6.1443373E-18
   56.72600        6.1472473E-18
   56.88750        6.1509734E-18
   57.04900        6.1542655E-18
   57.21050        6.1560663E-18
   57.37200        6.1560287E-18
   57.53350        6.1546208E-18
   57.69500        6.1528047E-18
   57.85650        6.1515172E-18
   58.01800        6.1512604E-18
   58.17950        6.1519945E-18
   58.34100        6.1533089E-18
   58.50250        6.1546870E-18
   58.66400        6.1556883E-18
   58.82550        6.1560014E-18
   58.98700        6.1554443E-18
   59.14850        6.1540004E-18
   59.31000        6.1518870E-18
   59.47150        6.1495543E-18
   59.63300        6.1475401E-18
   59.79450        6.1461976E-18
   59.95600        6.1454598E-18
   60.11750        6.1448245E-18
   60.27900        6.1436392E-18
   60.44050        6.1415613E-18
   60.60200        6.1389114E-18
   60.76350        6.1366689E-18
   60.92500        6.1360245E-18
   61.08650        6.1377240E-18
   61.24800        6.1415902E-18
   61.40950        6.1465330E-18
   61.57100        6.1510805E-18
   61.73250        6.1541257E-18
   61.89400        6.1554563E-18
   62.05550        6.1557549E-18
   62.21700        6.1561130E-18
   62.37850        6.1573646E-18
   62.54000        6.1596286E-18
   62.70150        6.1623028E-18
   62.86300        6.1644485E-18
   63.02450        6.1653179E-18
   63.18600        6.1647050E-18
   63.34750        6.1629691E-18
   63.50900        6.1607949E-18
   63.67050        6.1588841E-18
   63.83200        6.1577612E-18
   63.99350        6.1577219E-18
   64.15500        6.1588469E-18
   64.31650        6.1609657E-18
   64.47800        6.1636127E-18
   64.63950        6.1660603E-18
   64.80100        6.1675401E-18
   64.96250        6.1675856E-18
   65.12400        6.1663151E-18
   65.28550        6.1644382E-18
   65.44700        6.1629282E-18
   65.60850        6.1625001E-18
   65.77000        6.1632007E-18
   65.93150        6.1643708E-18
   66.09300        6.1650391E-18
   66.25450        6.1645408E-18
   66.41600        6.1629782E-18
   66.57750        6.1612192E-18
   66.73900        6.1604102E-18
   66.90050        6.1612904E-18
   67.06200        6.1637210E-18
   67.22350        6.1667142E-18
   67.38500        6.1689323E-18
   67.54650        6.1693558E-18
   67.70800        6.1677490E-18
   67.86950        6.1647045E-18
   68.03100        6.1613024E-18
   68.19250        6.1586086E-18
   68.35400        6.1572608E-18
   68.51550        6.1573236E-18
   68.67700        6.1583944E-18
   68.83850        6.1598502E-18
   69.00000        6.1610918E-18
   69.16150        6.1617193E-18
   69.32300        6.1616312E-18
   69.48450        6.1610629E-18
   69.64600        6.1605331E-18
   69.80750        6.1606510E-18
   69.96900        6.1618102E-18
   70.13050        6.1639175E-18
   70.29200        6.1663295E-18
   70.45350        6.1681237E-18
   70.61500        6.1685853E-18
   70.77650        6.1676551E-18
   70.93800        6.1660425E-18
   71.09950        6.1648994E-18
   71.26100        6.1651938E-18
   71.42250        6.1671460E-18
   71.58400        6.1700539E-18
   71.74550        6.1726554E-18
   71.90700        6.1738424E-18
   72.06850        6.1732981E-18
   72.23000        6.1716781E-18
   72.39150        6.1702107E-18
   72.55300        6.1699547E-18
   72.71450        6.1711673E-18
   72.87600        6.1731509E-18
   73.03750        6.1746427E-18
   73.19900        6.1745008E-18
   73.36050        6.1722923E-18
   73.52200        6.1684810E-18
   73.68350        6.1641636E-18
   73.84500        6.1605376E-18
   74.00650        6.1583994E-18
   74.16800        6.1578944E-18
   74.32950        6.1586062E-18
   74.49100        6.1598593E-18
   74.65250        6.1610678E-18
   74.81400        6.1619579E-18
   74.97550        6.1626246E-18
   75.13700        6.1634377E-18
   75.29850        6.1648477E-18
   75.46000        6.1671311E-18
   75.62150        6.1701631E-18
   75.78300        6.1733291E-18
   75.94450        6.1756804E-18
   76.10600        6.1763306E-18
   76.26750        6.1749198E-18
   76.42900        6.1718936E-18
   76.59050        6.1683851E-18
   76.75200        6.1657166E-18
   76.91350        6.1647443E-18
   77.07500        6.1654172E-18
   77.23650        6.1668085E-18
   77.39800        6.1676526E-18
   77.55950        6.1670930E-18
   77.72100        6.1652228E-18
   77.88250        6.1630680E-18
   78.04400        6.1620034E-18
   78.20550        6.1629460E-18
   78.36700        6.1658072E-18
   78.52850        6.1695398E-18
   78.69000        6.1727261E-18
   78.85150        6.1743520E-18
   79.01300        6.1742998E-18
   79.17450        6.1733118E-18
   79.33600        6.1724945E-18
   79.49750        6.1726657E-18
   79.65900        6.1739388E-18
   79.82050        6.1757400E-18
   79.98200        6.1772136E-18
   80.14350        6.1777422E-18
   80.30500        6.1772752E-18
   80.46650        6.1763058E-18
   80.62800        6.1755567E-18
   80.78950        6.1756035E-18
   80.95100        6.1766197E-18
   81.11250        6.1783402E-18
   81.27400        6.1801947E-18
   81.43550        6.1815402E-18
   81.59700        6.1818987E-18
   81.75850        6.1811415E-18
   81.92000        6.1795570E-18
   82.08150        6.1777438E-18
   82.24300        6.1763628E-18
   82.40450        6.1758289E-18
   82.56600        6.1760998E-18
   82.72750        6.1766900E-18
   82.88900        6.1769303E-18
   83.05050        6.1763645E-18
   83.21200        6.1750724E-18
   83.37350        6.1736877E-18
   83.53500        6.1730599E-18
   83.69650        6.1737010E-18
   83.85800        6.1753698E-18
   84.01950        6.1770779E-18
   84.18100        6.1775850E-18
   84.34250        6.1761060E-18
   84.50400        6.1728246E-18
   84.66550        6.1688715E-18
   84.82700        6.1657753E-18
   84.98850        6.1646748E-18
   85.15000        6.1657439E-18
   85.31150        6.1681564E-18
   85.47300        6.1705837E-18
   85.63450        6.1719494E-18
   85.79600        6.1719887E-18
   85.95750        6.1713083E-18
   86.11900        6.1709328E-18
   86.28050        6.1716388E-18
   86.44200        6.1734892E-18
   86.60350        6.1758103E-18
   86.76500        6.1775705E-18
   86.92650        6.1779179E-18
   87.08800        6.1765638E-18
   87.24950        6.1738693E-18
   87.41100        6.1706441E-18
   87.57250        6.1677945E-18
   87.73400        6.1660020E-18
   87.89550        6.1655301E-18
   88.05700        6.1662063E-18
   88.21850        6.1675438E-18
   88.38000        6.1689505E-18
   88.54150        6.1699629E-18
   88.70300        6.1704497E-18
   88.86450        6.1706917E-18
   89.02600        6.1712740E-18
   89.18750        6.1727774E-18
   89.34900        6.1753950E-18
   89.51050        6.1786976E-18
   89.67200        6.1817312E-18
   89.83350        6.1834547E-18
   89.99500        6.1833029E-18
   90.15650        6.1815282E-18
   90.31800        6.1791186E-18
   90.47950        6.1772971E-18
   90.64100        6.1768955E-18
   90.80250        6.1779527E-18
   90.96400        6.1797828E-18
   91.12550        6.1814554E-18
   91.28700        6.1823876E-18
   91.44850        6.1826585E-18
   91.61000        6.1828624E-18
   91.77150        6.1835912E-18
   91.93300        6.1849333E-18
   92.09450        6.1863208E-18
   92.25600        6.1868349E-18
   92.41750        6.1857542E-18
   92.57900        6.1829815E-18
   92.74050        6.1790909E-18
   92.90200        6.1749864E-18
   93.06350        6.1714208E-18
   93.22500        6.1686854E-18
   93.38650        6.1666344E-18
   93.54800        6.1649783E-18
   93.70950        6.1636114E-18
   93.87100        6.1627416E-18
   94.03250        6.1627421E-18
   94.19400        6.1638736E-18
   94.35550        6.1660822E-18
   94.51700        6.1690162E-18
   94.67850        6.1722182E-18
   94.84000        6.1753136E-18
   95.00150        6.1780739E-18
   95.16300        6.1803536E-18
   95.32450        6.1820170E-18
   95.48600        6.1829679E-18
   95.64750        6.1832628E-18
   95.80900        6.1831879E-18
   95.97050        6.1831945E-18
   96.13200        6.1836586E-18
   96.29350        6.1846189E-18
   96.45500        6.1856864E-18
   96.61650        6.1862538E-18
   96.77800        6.1859044E-18
   96.93950        6.1847554E-18
   97.10100        6.1834617E-18
   97.26250        6.1828119E-18
   97.42400        6.1831635E-18
   97.58550        6.1841114E-18
   97.74700        6.1846528E-18
   97.90850        6.1837897E-18
   98.07000        6.1811894E-18
   98.23150        6.1774742E-18
   98.39300        6.1739160E-18
   98.55450        6.1717327E-18
   98.71600        6.1714080E-18
   98.87750        6.1724743E-18
   99.03900        6.1738734E-18
   99.20050        6.1746688E-18
   99.36200        6.1746150E-18
   99.52350        6.1742312E-18
   99.68500        6.1743441E-18
   99.84650        6.1754467E-18
   100.0080        6.1773191E-18
   100.1695        6.1791471E-18
   100.3310        6.1800297E-18
   100.4925        6.1795086E-18
   100.6540        6.1777802E-18
   100.8155        6.1755150E-18
   100.9770        6.1734408E-18
   101.1385        6.1719945E-18
   101.3000        6.1712356E-18
   101.4615        6.1710168E-18
   101.6230        6.1712219E-18
   101.7845        6.1718721E-18
   101.9460        6.1730425E-18
   102.1075        6.1747039E-18
   102.2690        6.1766590E-18
   102.4305        6.1786599E-18
   102.5920        6.1805781E-18
   102.7535        6.1824422E-18
   102.9150        6.1842752E-18
   103.0765        6.1858539E-18
   103.2380        6.1866339E-18
   103.3995        6.1859908E-18
   103.5610        6.1836631E-18
   103.7225        6.1801120E-18
   103.8840        6.1764948E-18
   104.0455        6.1741778E-18
   104.2070        6.1740281E-18
   104.3685        6.1759133E-18
   104.5300        6.1787542E-18
   104.6915        6.1811530E-18
   104.8530        6.1822263E-18
   105.0145        6.1821026E-18
   105.1760        6.1817544E-18
   105.3375        6.1822482E-18
   105.4990        6.1839315E-18
   105.6605        6.1860884E-18
   105.8220        6.1873056E-18
   105.9835        6.1863039E-18
   106.1450        6.1827193E-18
   106.3065        6.1773401E-18
   106.4680        6.1717017E-18
   106.6295        6.1672924E-18
   106.7910        6.1648642E-18
   106.9525        6.1642264E-18
   107.1140        6.1645871E-18
   107.2755        6.1651566E-18
   107.4370        6.1656045E-18
   107.5985        6.1661228E-18
   107.7600        6.1671385E-18
   107.9215        6.1689678E-18
   108.0830        6.1716376E-18
   108.2445        6.1749413E-18
   108.4060        6.1785751E-18
   108.5675        6.1822139E-18
   108.7290        6.1854949E-18
   108.8905        6.1880025E-18
   109.0520        6.1893793E-18
   109.2135        6.1895262E-18
   109.3750        6.1887772E-18
   109.5365        6.1878668E-18
   109.6980        6.1876249E-18
   109.8595        6.1885211E-18
   110.0210        6.1903372E-18
   110.1825        6.1922327E-18
   110.3440        6.1932311E-18
   110.5055        6.1928407E-18
   110.6670        6.1913828E-18
   110.8285        6.1897718E-18
   110.9900        6.1888657E-18
   111.1515        6.1888301E-18
   111.3130        6.1889753E-18
   111.4745        6.1881832E-18
   111.6360        6.1856632E-18
   111.7975        6.1815517E-18
   111.9590        6.1769518E-18
   112.1205        6.1733817E-18
   112.2820        6.1719531E-18
   112.4435        6.1727840E-18
   112.6050        6.1750054E-18
   112.7665        6.1773414E-18
   112.9280        6.1788696E-18
   113.0895        6.1794619E-18
   113.2510        6.1796525E-18
   113.4125        6.1801017E-18
   113.5740        6.1810546E-18
   113.7355        6.1821725E-18
   113.8970        6.1827809E-18
   114.0585        6.1823136E-18
   114.2200        6.1806315E-18
   114.3815        6.1780557E-18
   114.5430        6.1751531E-18
   114.7045        6.1724548E-18
   114.8660        6.1702988E-18
   115.0275        6.1688479E-18
   115.1890        6.1681915E-18
   115.3505        6.1683867E-18
   115.5120        6.1693657E-18
   115.6735        6.1708054E-18
   115.8350        6.1721500E-18
   115.9965        6.1728643E-18
   116.1580        6.1727861E-18
   116.3195        6.1722989E-18
   116.4810        6.1721293E-18
   116.6425        6.1728730E-18
   116.8040        6.1745538E-18
   116.9655        6.1765461E-18
   117.1270        6.1779308E-18
   117.2885        6.1780796E-18
   117.4500        6.1771065E-18
   117.6115        6.1758860E-18
   117.7730        6.1756097E-18
   117.9345        6.1771209E-18
   118.0960        6.1804371E-18
   118.2575        6.1847542E-18
   118.4190        6.1889256E-18
   118.5805        6.1920937E-18
   118.7420        6.1940446E-18