  -27.90000       -2.8601234E-18
  -27.73850       -2.8659112E-18
  -27.57700       -2.8750908E-18
  -27.41550       -2.8841294E-18
  -27.25400       -2.8900018E-18
  -27.09250       -2.8915757E-18
  -26.93100       -2.8900723E-18
  -26.76950       -2.8883813E-18
  -26.60800       -2.8895820E-18
  -26.44650       -2.8953828E-18
  -26.28500       -2.9052448E-18
  -26.12350       -2.9166031E-18
  -25.96200       -2.9260805E-18
  -25.80050       -2.9311064E-18
  -25.63900       -2.9311463E-18
  -25.47750       -2.9279598E-18
  -25.31600       -2.9247572E-18
  -25.15450       -2.9246670E-18
  -24.99300       -2.9292544E-18
  -24.83150       -2.9377996E-18
  -24.67000       -2.9476782E-18
  -24.50850       -2.9556456E-18
  -24.34700       -2.9594043E-18
  -24.18550       -2.9586952E-18
  -24.02400       -2.9553999E-18
  -23.86250       -2.9526078E-18
  -23.70100       -2.9531121E-18
  -23.53950       -2.9580659E-18
  -23.37800       -2.9664409E-18
  -23.21650       -2.9755471E-18
  -23.05500       -2.9823474E-18
  -22.89350       -2.9849292E-18
  -22.73200       -2.9834146E-18
  -22.57050       -2.9798824E-18
  -22.40900       -2.9773411E-18
  -22.24750       -2.9782654E-18
  -22.08600       -2.9833985E-18
  -21.92450       -2.9914029E-18
  -21.76300       -2.9995256E-18
  -21.60150       -3.0049397E-18
  -21.44000       -3.0061154E-18
  -21.27850       -3.0035480E-18
  -21.11700       -2.9995064E-18
  -20.95550       -2.9969206E-18
  -20.79400       -2.9979674E-18
  -20.63250       -3.0030352E-18
  -20.47100       -3.0105708E-18
  -20.30950       -3.0178688E-18
  -20.14800       -3.0224077E-18
  -19.98650       -3.0230831E-18
  -19.82500       -3.0207238E-18
  -19.66350       -3.0176502E-18
  -19.50200       -3.0164984E-18
  -19.34050       -3.0188988E-18
  -19.17900       -3.0246604E-18
  -19.01750       -3.0318618E-18
  -18.85600       -3.0377978E-18
  -18.69450       -3.0403125E-18
  -18.53300       -3.0388597E-18
  -18.37150       -3.0347720E-18
  -18.21000       -3.0306065E-18
  -18.04850       -3.0288968E-18
  -17.88700       -3.0309339E-18
  -17.72550       -3.0361671E-18
  -17.56400       -3.0425244E-18
  -17.40250       -3.0474717E-18
  -17.24100       -3.0492843E-18
  -17.07950       -3.0478880E-18
  -16.91800       -3.0448696E-18
  -16.75650       -3.0426466E-18
  -16.59500       -3.0432301E-18
  -16.43350       -3.0471919E-18
  -16.27200       -3.0533544E-18
  -16.11050       -3.0593581E-18
  -15.94900       -3.0628269E-18
  -15.78750       -3.0625479E-18
  -15.62600       -3.0590822E-18
  -15.46450       -3.0545019E-18
  -15.30300       -3.0513872E-18
  -15.14150       -3.0515733E-18
  -14.98000       -3.0552797E-18
  -14.81850       -3.0610453E-18
  -14.65700       -3.0664983E-18
  -14.49550       -3.0695765E-18
  -14.33400       -3.0695889E-18
  -14.17250       -3.0675770E-18
  -14.01100       -3.0657903E-18
  -13.84950       -3.0665389E-18
  -13.68800       -3.0709887E-18
  -13.52650       -3.0785243E-18
  -13.36500       -3.0870070E-18
  -13.20350       -3.0937955E-18
  -13.04200       -3.0970418E-18
  -12.88050       -3.0965963E-18
  -12.71900       -3.0940755E-18
  -12.55750       -3.0920441E-18
  -12.39600       -3.0927241E-18
  -12.23450       -3.0968687E-18
  -12.07300       -3.1033773E-18
  -11.91150       -3.1098391E-18
  -11.75000       -3.1137473E-18
  -11.58850       -3.1137605E-18
  -11.42700       -3.1103997E-18
  -11.26550       -3.1058068E-18
  -11.10400       -3.1027057E-18
  -10.94250       -3.1030626E-18
  -10.78100       -3.1071154E-18
  -10.61950       -3.1132431E-18
  -10.45800       -3.1187619E-18
  -10.29650       -3.1212430E-18
  -10.13500       -3.1197259E-18
  -9.973500       -3.1152180E-18
  -9.812000       -3.1102214E-18
  -9.650500       -3.1075259E-18
  -9.489000       -3.1088281E-18
  -9.327500       -3.1138708E-18
  -9.166000       -3.1205147E-18
  -9.004500       -3.1257327E-18
  -8.843000       -3.1270639E-18
  -8.681500       -3.1238168E-18
  -8.520000       -3.1174392E-18
  -8.358500       -3.1108524E-18
  -8.197000       -3.1070533E-18
  -8.035500       -3.1076613E-18
  -7.874000       -3.1121264E-18
  -7.712500       -3.1179973E-18
  -7.551000       -3.1221424E-18
  -7.389500       -3.1223225E-18
  -7.228000       -3.1183534E-18
  -7.066500       -3.1122652E-18
  -6.905000       -3.1073716E-18
  -6.743500       -3.1066852E-18
  -6.582000       -3.1114535E-18
  -6.420500       -3.1205384E-18
  -6.259000       -3.1309498E-18
  -6.097500       -3.1392759E-18
  -5.936000       -3.1433140E-18
  -5.774500       -3.1431010E-18
  -5.613000       -3.1408528E-18
  -5.451500       -3.1398498E-18
  -5.290000       -3.1428194E-18
  -5.128500       -3.1506056E-18
  -4.967000       -3.1617486E-18
  -4.805500       -3.1731810E-18
  -4.644000       -3.1816843E-18
  -4.482500       -3.1854122E-18
  -4.321000       -3.1847502E-18
  -4.159500       -3.1821109E-18
  -3.998000       -3.1807688E-18
  -3.836500       -3.1832985E-18
  -3.675000       -3.1903477E-18
  -3.513500       -3.2003175E-18
  -3.352000       -3.2100961E-18
  -3.190500       -3.2164988E-18
  -3.029000       -3.2177363E-18
  -2.867500       -3.2142340E-18
  -2.706000       -3.2084030E-18
  -2.544500       -3.2034786E-18
  -2.383000       -3.2019791E-18
  -2.221500       -3.2045180E-18
  -2.060000       -3.2095464E-18
  -1.898500       -3.2141432E-18
  -1.737000       -3.2154663E-18
  -1.575500       -3.2121683E-18
  -1.414000       -3.2050827E-18
  -1.252500       -3.1968539E-18
  -1.091000       -3.1906925E-18
 -0.9295000       -3.1888648E-18
 -0.7680000       -3.1916607E-18
 -0.6065000       -3.1973283E-18
 -0.4450000       -3.2029947E-18
 -0.2835000       -3.2060892E-18
 -0.1220000       -3.2055635E-18
  3.9500002E-02   -3.2023226E-18
  0.2010000       -3.1986942E-18
  0.3625000       -3.1972270E-18
  0.5240000       -3.1994362E-18
  0.6855000       -3.2050920E-18
  0.8470000       -3.2123710E-18
   1.008500       -3.2187552E-18
   1.170000       -3.2222192E-18
   1.331500       -3.2221189E-18
   1.493000       -3.2193898E-18
   1.654500       -3.2160007E-18
   1.816000       -3.2139648E-18
   1.977500       -3.2143949E-18
   2.139000       -3.2170301E-18
   2.300500       -3.2204331E-18
   2.462000       -3.2227211E-18
   2.623500       -3.2224833E-18
   2.785000       -3.2194482E-18
   2.946500       -3.2146021E-18
   3.108000       -3.2097172E-18
   3.269500       -3.2065266E-18
   3.431000       -3.2059444E-18
   3.592500       -3.2077067E-18
   3.754000       -3.2105818E-18
   3.915500       -3.2130416E-18
   4.077000       -3.2140572E-18
   4.238500       -3.2136126E-18
   4.400000       -3.2127004E-18
   4.561500       -3.2127883E-18
   4.723000       -3.2150434E-18
   4.884500       -3.2197172E-18
   5.046000       -3.2260145E-18
   5.207500       -3.2325089E-18
   5.369000       -3.2378773E-18
   5.530500       -3.2415668E-18
   5.692000       -3.2440373E-18
   5.853500       -3.2464684E-18
   6.015000       -3.2500958E-18
   6.176500       -3.2555407E-18
   6.338000       -3.2624760E-18
   6.499500       -3.2698022E-18
   6.661000       -3.2762184E-18
   6.822500       -3.2808843E-18
   6.984000       -3.2838086E-18
   7.145500       -3.2857835E-18
   7.307000       -3.2879054E-18
   7.468500       -3.2909600E-18
   7.630000       -3.2949815E-18
   7.791500       -3.2992194E-18
   7.953000       -3.3024983E-18
   8.114500       -3.3037987E-18
   8.276000       -3.3027583E-18
   8.437500       -3.2998656E-18
   8.599000       -3.2962490E-18
   8.760500       -3.2931650E-18
   8.922000       -3.2914358E-18
   9.083500       -3.2910888E-18
   9.245000       -3.2913852E-18
   9.406500       -3.2912146E-18
   9.568000       -3.2896733E-18
   9.729500       -3.2865604E-18
   9.891000       -3.2825440E-18
   10.05250       -3.2789067E-18
   10.21400       -3.2769587E-18
   10.37550       -3.2773951E-18
   10.53700       -3.2799124E-18
   10.69850       -3.2832976E-18
   10.86000       -3.2859708E-18
   11.02150       -3.2867457E-18
   11.18300       -3.2854247E-18
   11.34450       -3.2829291E-18
   11.50600       -3.2808740E-18
   11.66750       -3.2807892E-18
   11.82900       -3.2833615E-18
   11.99050       -3.2880839E-18
   12.15200       -3.2934856E-18
   12.31350       -3.2978597E-18
   12.47500       -3.3001070E-18
   12.63650       -3.3002813E-18
   12.79800       -3.2995600E-18
   12.95950       -3.2996563E-18
   13.12100       -3.3019720E-18
   13.28250       -3.3069149E-18
   13.44400       -3.3137035E-18
   13.60550       -3.3207370E-18
   13.76700       -3.3263408E-18
   13.92850       -3.3295260E-18
   14.09000       -3.3304053E-18
   14.25150       -3.3300871E-18
   14.41300       -3.3301121E-18
   14.57450       -3.3317096E-18
   14.73600       -3.3352166E-18
   14.89750       -3.3399220E-18
   15.05900       -3.3443826E-18
   15.22050       -3.3470648E-18
   15.38200       -3.3470133E-18
   15.54350       -3.3442710E-18
   15.70500       -3.3398493E-18
   15.86650       -3.3352845E-18
   16.02800       -3.3319559E-18
   16.18950       -3.3304905E-18
   16.35100       -3.3305170E-18
   16.51250       -3.3308940E-18
   16.67400       -3.3303048E-18
   16.83550       -3.3279354E-18
   16.99700       -3.3239235E-18
   17.15850       -3.3193585E-18
   17.32000       -3.3158364E-18
   17.48150       -3.3147708E-18
   17.64300       -3.3167928E-18
   17.80450       -3.3215067E-18
   17.96600       -3.3277193E-18
   18.12750       -3.3340065E-18
   18.28900       -3.3393319E-18
   18.45050       -3.3434301E-18
   18.61200       -3.3468007E-18
   18.77350       -3.3503528E-18
   18.93500       -3.3549052E-18
   19.09650       -3.3607726E-18
   19.25800       -3.3676123E-18
   19.41950       -3.3745623E-18
   19.58100       -3.3805811E-18
   19.74250       -3.3848330E-18
   19.90400       -3.3869704E-18
   20.06550       -3.3872159E-18
   20.22700       -3.3862396E-18
   20.38850       -3.3848899E-18
   20.55000       -3.3838712E-18
   20.71150       -3.3834719E-18
   20.87300       -3.3834396E-18
   21.03450       -3.3830715E-18
   21.19600       -3.3815063E-18
   21.35750       -3.3781306E-18
   21.51900       -3.3729187E-18
   21.68050       -3.3665525E-18
   21.84200       -3.3602260E-18
   22.00350       -3.3552073E-18
   22.16500       -3.3523393E-18
   22.32650       -3.3517083E-18
   22.48800       -3.3526453E-18
   22.64950       -3.3540654E-18
   22.81100       -3.3550001E-18
   22.97250       -3.3550650E-18
   23.13400       -3.3546368E-18
   23.29550       -3.3546612E-18
   23.45700       -3.3561809E-18
   23.61850       -3.3598230E-18
   23.78000       -3.3654722E-18
   23.94150       -3.3722834E-18
   24.10300       -3.3790014E-18
   24.26450       -3.3844515E-18
   24.42600       -3.3879858E-18
   24.58750       -3.3897163E-18
   24.74900       -3.3904390E-18
   24.91050       -3.3912850E-18
   25.07200       -3.3932419E-18
   25.23350       -3.3967330E-18
   25.39500       -3.4014310E-18
   25.55650       -3.4063767E-18
   25.71800       -3.4103881E-18
   25.87950       -3.4125764E-18
   26.04100       -3.4127814E-18
   26.20250       -3.4116942E-18
   26.36400       -3.4105949E-18
   26.52550       -3.4107845E-18
   26.68700       -3.4129611E-18
   26.84850       -3.4168476E-18
   27.01000       -3.4212767E-18
   27.17150       -3.4247217E-18
   27.33300       -3.4260241E-18
   27.49450       -3.4249688E-18
   27.65600       -3.4224221E-18
   27.81750       -3.4199305E-18
   27.97900       -3.4189798E-18
   28.14050       -3.4202686E-18
   28.30200       -3.4233550E-18
   28.46350       -3.4268596E-18
   28.62500       -3.4291142E-18
   28.78650       -3.4289383E-18
   28.94800       -3.4261610E-18
   29.10950       -3.4216502E-18
   29.27100       -3.4168747E-18
   29.43250       -3.4132297E-18
   29.59400       -3.4114521E-18
   29.75550       -3.4113818E-18
   29.91700       -3.4121450E-18
   30.07850       -3.4126414E-18
   30.24000       -3.4121016E-18
   30.40150       -3.4104622E-18
   30.56300       -3.4084072E-18
   30.72450       -3.4070829E-18
   30.88600       -3.4076187E-18
   31.04750       -3.4106603E-18
   31.20900       -3.4160944E-18
   31.37050       -3.4230775E-18
   31.53200       -3.4303546E-18
   31.69350       -3.4367429E-18
   31.85500       -3.4415894E-18
   32.01650       -3.4449866E-18
   32.17800       -3.4476549E-18
   32.33950       -3.4505295E-18
   32.50100       -3.4542562E-18
   32.66250       -3.4588355E-18
   32.82400       -3.4635951E-18
   32.98550       -3.4674903E-18
   33.14700       -3.4695880E-18
   33.30850       -3.4694846E-18
   33.47000       -3.4674607E-18
   33.63150       -3.4643058E-18
   33.79300       -3.4609239E-18
   33.95450       -3.4579407E-18
   34.11600       -3.4555081E-18
   34.27750       -3.4533674E-18
   34.43900       -3.4510926E-18
   34.60050       -3.4483489E-18
   34.76200       -3.4450340E-18
   34.92350       -3.4412837E-18
   35.08500       -3.4373956E-18
   35.24650       -3.4337609E-18
   35.40800       -3.4308288E-18
   35.56950       -3.4290783E-18
   35.73100       -3.4289345E-18
   35.89250       -3.4306232E-18
   36.05400       -3.4340093E-18
   36.21550       -3.4385431E-18
   36.37700       -3.4433959E-18
   36.53850       -3.4477796E-18
   36.70000       -3.4513005E-18
   36.86150       -3.4541580E-18
   37.02300       -3.4570361E-18
   37.18450       -3.4607161E-18
   37.34600       -3.4656028E-18
   37.50750       -3.4714173E-18
   37.66900       -3.4772332E-18
   37.83050       -3.4818472E-18
   37.99200       -3.4843197E-18
   38.15350       -3.4844127E-18
   38.31500       -3.4827273E-18
   38.47650       -3.4804592E-18
   38.63800       -3.4788950E-18
   38.79950       -3.4788578E-18
   38.96100       -3.4803690E-18
   39.12250       -3.4826545E-18
   39.28400       -3.4844983E-18
   39.44550       -3.4847924E-18
   39.60700       -3.4830623E-18
   39.76850       -3.4797470E-18
   39.93000       -3.4761041E-18
   40.09150       -3.4737322E-18
   40.25300       -3.4738947E-18
   40.41450       -3.4769160E-18
   40.57600       -3.4819610E-18
   40.73750       -3.4873393E-18
   40.89900       -3.4912506E-18
   41.06050       -3.4926274E-18
   41.22200       -3.4916770E-18
   41.38350       -3.4898192E-18
   41.54500       -3.4890056E-18
   41.70650       -3.4907373E-18
   41.86800       -3.4952405E-18
   42.02950       -3.5012508E-18
   42.19100       -3.5065489E-18
   42.35250       -3.5089965E-18
   42.51400       -3.5075738E-18
   42.67550       -3.5028837E-18
   42.83700       -3.4968717E-18
   42.99850       -3.4919111E-18
   43.16000       -3.4897038E-18
   43.32150       -3.4905458E-18
   43.48300       -3.4932726E-18
   43.64450       -3.4959060E-18
   43.80600       -3.4966533E-18
   43.96750       -3.4947934E-18
   44.12900       -3.4910310E-18
   44.29050       -3.4871734E-18
   44.45200       -3.4853036E-18
   44.61350       -3.4868463E-18
   44.77500       -3.4919293E-18
   44.93650       -3.4993276E-18
   45.09800       -3.5069712E-18
   45.25950       -3.5128152E-18
   45.42100       -3.5156789E-18
   45.58250       -3.5157157E-18
   45.74400       -3.5142921E-18
   45.90550       -3.5133198E-18
   46.06700       -3.5143401E-18
   46.22850       -3.5177622E-18
   46.39000       -3.5226338E-18
   46.55150       -3.5270601E-18
   46.71300       -3.5290817E-18
   46.87450       -3.5276147E-18
   47.03600       -3.5230007E-18
   47.19750       -3.5168891E-18
   47.35900       -3.5115128E-18
   47.52050       -3.5086665E-18
   47.68200       -3.5089018E-18
   47.84350       -3.5113184E-18
   48.00500       -3.5140510E-18
   48.16650       -3.5152020E-18
   48.32800       -3.5137569E-18
   48.48950       -3.5100553E-18
   48.65100       -3.5056154E-18
   48.81250       -3.5024246E-18
   48.97400       -3.5020557E-18
   49.13550       -3.5049921E-18
   49.29700       -3.5104631E-18
   49.45850       -3.5168200E-18
   49.62000       -3.5222740E-18
   49.78150       -3.5256506E-18
   49.94300       -3.5268458E-18
   50.10450       -3.5268061E-18
   50.26600       -3.5270650E-18
   50.42750       -3.5290358E-18
   50.58900       -3.5333549E-18
   50.75050       -3.5395439E-18
   50.91200       -3.5461398E-18
   51.07350       -3.5512783E-18
   51.23500       -3.5534980E-18
   51.39650       -3.5524119E-18
   51.55800       -3.5489374E-18
   51.71950       -3.5449330E-18
   51.88100       -3.5423799E-18
   52.04250       -3.5424779E-18
   52.20400       -3.5450719E-18
   52.36550       -3.5487128E-18
   52.52700       -3.5513428E-18
   52.68850       -3.5513023E-18
   52.85000       -3.5481830E-18
   53.01150       -3.5430809E-18
   53.17300       -3.5381170E-18
   53.33450       -3.5354307E-18
   53.49600       -3.5361504E-18
   53.65750       -3.5398495E-18
   53.81900       -3.5447498E-18
   53.98050       -3.5485726E-18
   54.14200       -3.5496165E-18
   54.30350       -3.5475593E-18
   54.46500       -3.5436041E-18
   54.62650       -3.5399157E-18
   54.78800       -3.5386001E-18
   54.94950       -3.5407152E-18
   55.11100       -3.5457668E-18
   55.27250       -3.5519202E-18
   55.43400       -3.5568253E-18
   55.59550       -3.5586629E-18
   55.75700       -3.5569618E-18
   55.91850       -3.5528032E-18
   56.08000       -3.5483335E-18
   56.24150       -3.5457817E-18
   56.40300       -3.5464248E-18
   56.56450       -3.5499660E-18
   56.72600       -3.5546619E-18
   56.88750       -3.5581588E-18
   57.04900       -3.5586691E-18
   57.21050       -3.5559142E-18
   57.37200       -3.5513631E-18
   57.53350       -3.5475965E-18
   57.69500       -3.5471018E-18
   57.85650       -3.5510421E-18
   58.01800       -3.5586332E-18
   58.17950       -3.5674542E-18
   58.34100       -3.5745775E-18
   58.50250       -3.5779639E-18
   58.66400       -3.5774259E-18
   58.82550       -3.5746507E-18
   58.98700       -3.5722783E-18
   59.14850       -3.5725124E-18
   59.31000       -3.5759783E-18
   59.47150       -3.5814005E-18
   59.63300       -3.5862573E-18
   59.79450       -3.5880522E-18
   59.95600       -3.5855699E-18
   60.11750       -3.5794773E-18
   60.27900       -3.5720054E-18
   60.44050       -3.5658772E-18
   60.60200       -3.5630400E-18
   60.76350       -3.5638233E-18
   60.92500       -3.5669050E-18
   61.08650       -3.5700607E-18
   61.24800       -3.5712927E-18
   61.40950       -3.5697902E-18
   61.57100       -3.5662866E-18
   61.73250       -3.5626760E-18
   61.89400       -3.5610948E-18
   62.05550       -3.5629055E-18
   62.21700       -3.5680560E-18
   62.37850       -3.5751073E-18
   62.54000       -3.5819183E-18
   62.70150       -3.5866489E-18
   62.86300       -3.5886031E-18
   63.02450       -3.5885101E-18
   63.18600       -3.5881101E-18
   63.34750       -3.5892426E-18
   63.50900       -3.5928817E-18
   63.67050       -3.5985905E-18
   63.83200       -3.6046732E-18
   63.99350       -3.6089750E-18
   64.15500       -3.6099316E-18
   64.31650       -3.6073380E-18
   64.47800       -3.6024336E-18
   64.63950       -3.5972674E-18
   64.80100       -3.5936750E-18
   64.96250       -3.5923983E-18
   65.12400       -3.5927941E-18
   65.28550       -3.5932589E-18
   65.44700       -3.5921352E-18
   65.60850       -3.5886151E-18
   65.77000       -3.5831859E-18
   65.93150       -3.5773973E-18
   66.09300       -3.5730885E-18
   66.25450       -3.5714917E-18
   66.41600       -3.5726688E-18
   66.57750       -3.5755498E-18
   66.73900       -3.5785231E-18
   66.90050       -3.5802474E-18
   67.06200       -3.5802854E-18
   67.22350       -3.5792709E-18
   67.38500       -3.5785587E-18
   67.54650       -3.5795521E-18
   67.70800       -3.5830176E-18
   67.86950       -3.5887169E-18
   68.03100       -3.5955060E-18
   68.19250       -3.6018612E-18
   68.35400       -3.6065716E-18
   68.51550       -3.6092707E-18
   68.67700       -3.6105631E-18
   68.83850       -3.6116902E-18
   69.00000       -3.6138863E-18
   69.16150       -3.6177174E-18
   69.32300       -3.6227173E-18
   69.48450       -3.6275290E-18
   69.64600       -3.6304969E-18
   69.80750       -3.6304688E-18
   69.96900       -3.6274099E-18
   70.13050       -3.6224907E-18
   70.29200       -3.6176024E-18
   70.45350       -3.6145001E-18
   70.61500       -3.6140009E-18
   70.77650       -3.6156321E-18
   70.93800       -3.6179081E-18
   71.09950       -3.6191079E-18
   71.26100       -3.6181827E-18
   71.42250       -3.6153302E-18
   71.58400       -3.6119404E-18
   71.74550       -3.6099188E-18
   71.90700       -3.6107050E-18
   72.06850       -3.6144993E-18
   72.23000       -3.6200774E-18
   72.39150       -3.6253002E-18
   72.55300       -3.6280944E-18
   72.71450       -3.6274231E-18
   72.87600       -3.6237947E-18
   73.03750       -3.6190434E-18
   73.19900       -3.6154733E-18
   73.36050       -3.6147379E-18
   73.52200       -3.6170019E-18
   73.68350       -3.6208165E-18
   73.84500       -3.6238084E-18
   74.00650       -3.6238712E-18
   74.16800       -3.6202796E-18
   74.32950       -3.6141610E-18
   74.49100       -3.6080398E-18
   74.65250       -3.6046509E-18
   74.81400       -3.6055703E-18
   74.97550       -3.6103613E-18
   75.13700       -3.6167045E-18
   75.29850       -3.6215245E-18
   75.46000       -3.6225697E-18
   75.62150       -3.6196394E-18
   75.78300       -3.6147867E-18
   75.94450       -3.6113316E-18
   76.10600       -3.6121633E-18
   76.26750       -3.6181955E-18
   76.42900       -3.6277925E-18
   76.59050       -3.6374854E-18
   76.75200       -3.6436607E-18
   76.91350       -3.6443684E-18
   77.07500       -3.6403226E-18
   77.23650       -3.6345410E-18
   77.39800       -3.6307914E-18
   77.55950       -3.6316186E-18
   77.72100       -3.6369845E-18
   77.88250       -3.6442472E-18
   78.04400       -3.6495035E-18
   78.20550       -3.6496193E-18
   78.36700       -3.6439171E-18
   78.52850       -3.6346498E-18
   78.69000       -3.6259826E-18
   78.85150       -3.6219724E-18
   79.01300       -3.6245218E-18
   79.17450       -3.6323664E-18
   79.33600       -3.6416490E-18
   79.49750       -3.6478334E-18
   79.65900       -3.6480204E-18
   79.82050       -3.6424687E-18
   79.98200       -3.6345290E-18
   80.14350       -3.6289625E-18
   80.30500       -3.6294861E-18
   80.46650       -3.6367690E-18
   80.62800       -3.6479596E-18
   80.78950       -3.6580247E-18
   80.95100       -3.6623008E-18
   81.11250       -3.6589503E-18
   81.27400       -3.6500308E-18
   81.43550       -3.6405356E-18
   81.59700       -3.6358633E-18
   81.75850       -3.6389933E-18
   81.92000       -3.6488624E-18
   82.08150       -3.6608201E-18
   82.24300       -3.6689749E-18
   82.40450       -3.6692421E-18
   82.56600       -3.6615146E-18
   82.72750       -3.6498021E-18
   82.88900       -3.6402225E-18
   83.05050       -3.6378448E-18
   83.21200       -3.6440255E-18
   83.37350       -3.6556449E-18
   83.53500       -3.6666878E-18
   83.69650       -3.6713555E-18
   83.85800       -3.6671047E-18
   84.01950       -3.6560299E-18
   84.18100       -3.6438485E-18
   84.34250       -3.6369982E-18
   84.50400       -3.6393031E-18
   84.66550       -3.6499311E-18
   84.82700       -3.6637173E-18
   84.98850       -3.6737370E-18
   85.15000       -3.6748624E-18
   85.31150       -3.6664549E-18
   85.47300       -3.6527849E-18
   85.63450       -3.6409211E-18
   85.79600       -3.6371330E-18
   85.95750       -3.6436421E-18
   86.11900       -3.6574105E-18
   86.28050       -3.6716190E-18
   86.44200       -3.6791426E-18
   86.60350       -3.6762467E-18
   86.76500       -3.6646186E-18
   86.92650       -3.6506036E-18
   87.08800       -3.6419728E-18
   87.24950       -3.6438675E-18
   87.41100       -3.6560275E-18
   87.57250       -3.6728039E-18
   87.73400       -3.6859933E-18
   87.89550       -3.6890638E-18
   88.05700       -3.6805894E-18
   88.21850       -3.6650797E-18
   88.38000       -3.6507335E-18
   88.54150       -3.6452328E-18
   88.70300       -3.6517389E-18
   88.86450       -3.6671915E-18
   89.02600       -3.6838455E-18
   89.18750       -3.6932936E-18
   89.34900       -3.6908716E-18
   89.51050       -3.6781413E-18
   89.67200       -3.6621383E-18
   89.83350       -3.6517456E-18
   89.99500       -3.6530761E-18
   90.15650       -3.6662485E-18
   90.31800       -3.6852307E-18
   90.47950       -3.7008619E-18
   90.64100       -3.7055185E-18
   90.80250       -3.6970329E-18
   90.96400       -3.6798329E-18
   91.12550       -3.6626834E-18
   91.28700       -3.6541895E-18
   91.44850       -3.6583754E-18
   91.61000       -3.6726191E-18
   91.77150       -3.6890059E-18
   91.93300       -3.6984118E-18
   92.09450       -3.6952321E-18
   92.25600       -3.6803342E-18
   92.41750       -3.6607143E-18
   92.57900       -3.6459851E-18
   92.74050       -3.6434663E-18
   92.90200       -3.6544004E-18
   93.06350       -3.6732676E-18
   93.22500       -3.6905920E-18
   93.38650       -3.6978129E-18
   93.54800       -3.6917091E-18
   93.70950       -3.6760808E-18
   93.87100       -3.6598002E-18
   94.03250       -3.6522075E-18
   94.19400       -3.6582311E-18
   94.35550       -3.6757483E-18
   94.51700       -3.6966106E-18
   94.67850       -3.7108331E-18
   94.84000       -3.7117865E-18
   95.00150       -3.6996765E-18
   95.16300       -3.6814558E-18
   95.32450       -3.6672097E-18
   95.48600       -3.6648982E-18
   95.64750       -3.6762272E-18
   95.80900       -3.6957822E-18
   95.97050       -3.7138850E-18
   96.13200       -3.7216572E-18
   96.29350       -3.7156564E-18
   96.45500       -3.6996749E-18
   96.61650       -3.6827421E-18
   96.77800       -3.6744049E-18
   96.93950       -3.6797349E-18
   97.10100       -3.6966979E-18
   97.26250       -3.7172194E-18
   97.42400       -3.7313828E-18
   97.58550       -3.7325264E-18
   97.74700       -3.7206303E-18
   97.90850       -3.7022516E-18
   98.07000       -3.6870753E-18
   98.23150       -3.6828699E-18
   98.39300       -3.6914502E-18
   98.55450       -3.7077407E-18
   98.71600       -3.7224360E-18
   98.87750       -3.7268850E-18
   99.03900       -3.7176673E-18
   99.20050       -3.6984689E-18
   99.36200       -3.6782625E-18
   99.52350       -3.6667324E-18
   99.68500       -3.6692954E-18
   99.84650       -3.6842931E-18
   100.0080       -3.7038278E-18
   100.1695       -3.7178464E-18
   100.3310       -3.7193701E-18
   100.4925       -3.7081489E-18
   100.6540       -3.6907930E-18
   100.8155       -3.6772753E-18
   100.9770       -3.6756163E-18
   101.1385       -3.6875815E-18
   101.3000       -3.7076597E-18
   101.4615       -3.7258940E-18
   101.6230       -3.7330826E-18
   101.7845       -3.7256099E-18
   101.9460       -3.7073855E-18
   102.1075       -3.6878454E-18
   102.2690       -3.6770577E-18
   102.4305       -3.6804893E-18
   102.5920       -3.6961962E-18
   102.7535       -3.7159067E-18
   102.9150       -3.7294207E-18
   103.0765       -3.7299758E-18
   103.2380       -3.7177686E-18
   103.3995       -3.6997977E-18
   103.5610       -3.6861646E-18
   103.7225       -3.6847811E-18
   103.8840       -3.6972326E-18
   104.0455       -3.7179254E-18
   104.2070       -3.7369435E-18
   104.3685       -3.7451442E-18
   104.5300       -3.7388469E-18
   104.6915       -3.7217147E-18
   104.8530       -3.7028504E-18
   105.0145       -3.6921112E-18
   105.1760       -3.6950534E-18
   105.3375       -3.7101069E-18
   105.4990       -3.7293996E-18
   105.6605       -3.7428049E-18
   105.8220       -3.7431565E-18
   105.9835       -3.7299633E-18
   106.1450       -3.7097193E-18
   106.3065       -3.6926050E-18
   106.4680       -3.6872664E-18
   106.6295       -3.6963542E-18
   106.7910       -3.7151581E-18
   106.9525       -3.7340604E-18
   107.1140       -3.7435332E-18
   107.2755       -3.7390880E-18
   107.4370       -3.7235928E-18
   107.5985       -3.7057687E-18
   107.7600       -3.6956238E-18
   107.9215       -3.6992199E-18
   108.0830       -3.7154786E-18
   108.2445       -3.7367231E-18
   108.4060       -3.7526599E-18
   108.5675       -3.7557110E-18
   108.7290       -3.7448857E-18
   108.8905       -3.7261984E-18
   109.0520       -3.7094600E-18
   109.2135       -3.7031892E-18
   109.3750       -3.7103033E-18
   109.5365       -3.7267783E-18
   109.6980       -3.7438947E-18
   109.8595       -3.7528254E-18
   110.0210       -3.7491825E-18
   110.1825       -3.7351800E-18
   110.3440       -3.7183704E-18
   110.5055       -3.7076758E-18
   110.6670       -3.7088053E-18
   110.8285       -3.7214107E-18
   110.9900       -3.7393576E-18
   111.1515       -3.7538891E-18
   111.3130       -3.7580192E-18
   111.4745       -3.7499414E-18
   111.6360       -3.7337957E-18
   111.7975       -3.7174618E-18
   111.9590       -3.7085385E-18
   112.1205       -3.7105511E-18
   112.2820       -3.7212941E-18
   112.4435       -3.7341369E-18
   112.6050       -3.7415699E-18
   112.7665       -3.7391455E-18
   112.9280       -3.7277841E-18
   113.0895       -3.7132766E-18
   113.2510       -3.7032748E-18
   113.4125       -3.7033426E-18
   113.5740       -3.7140993E-18
   113.7355       -3.7309378E-18
   113.8970       -3.7464391E-18
   114.0585       -3.7542051E-18
   114.2200       -3.7520884E-18
   114.3815       -3.7431130E-18
   114.5430       -3.7336704E-18
   114.7045       -3.7300167E-18
   114.8660       -3.7349938E-18
   115.0275       -3.7466703E-18
   115.1890       -3.7595499E-18
   115.3505       -3.7675852E-18
   115.5120       -3.7673441E-18
   115.6735       -3.7596819E-18
   115.8350       -3.7490985E-18
   115.9965       -3.7412424E-18
   116.1580       -3.7399425E-18
   116.3195       -3.7453613E-18
   116.4810       -3.7541336E-18
   116.6425       -3.7613036E-18
   116.8040       -3.7629352E-18
   116.9655       -3.7580221E-18
   117.1270       -3.7488255E-18
   117.2885       -3.7395901E-18
   117.4500       -3.7343788E-18
   117.6115       -3.7351258E-18
   117.7730       -3.7408193E-18
   117.9345       -3.7481543E-18
   118.0960       -3.7532514E-18
   118.2575       -3.7535707E-18
   118.4190       -3.7490783E-18
   118.5805       -3.7421345E-18
   118.7420       -3.7362321E-18