  -27.90000       -2.5583472E-18
  -27.73850       -2.5624558E-18
  -27.57700       -2.5688865E-18
  -27.41550       -2.5750865E-18
  -27.25400       -2.5790499E-18
  -27.09250       -2.5803217E-18
  -26.93100       -2.5801525E-18
  -26.76950       -2.5807315E-18
  -26.60800       -2.5839181E-18
  -26.44650       -2.5901575E-18
  -26.28500       -2.5981836E-18
  -26.12350       -2.6056665E-18
  -25.96200       -2.6104546E-18
  -25.80050       -2.6117432E-18
  -25.63900       -2.6105196E-18
  -25.47750       -2.6090439E-18
  -25.31600       -2.6096417E-18
  -25.15450       -2.6134620E-18
  -24.99300       -2.6198764E-18
  -24.83150       -2.6268440E-18
  -24.67000       -2.6320393E-18
  -24.50850       -2.6341215E-18
  -24.34700       -2.6334511E-18
  -24.18550       -2.6318722E-18
  -24.02400       -2.6316853E-18
  -23.86250       -2.6343819E-18
  -23.70100       -2.6398365E-18
  -23.53950       -2.6463942E-18
  -23.37800       -2.6517919E-18
  -23.21650       -2.6544015E-18
  -23.05500       -2.6541107E-18
  -22.89350       -2.6523670E-18
  -22.73200       -2.6513717E-18
  -22.57050       -2.6528691E-18
  -22.40900       -2.6571963E-18
  -22.24750       -2.6631078E-18
  -22.08600       -2.6684607E-18
  -21.92450       -2.6713885E-18
  -21.76300       -2.6713122E-18
  -21.60150       -2.6692504E-18
  -21.44000       -2.6672596E-18
  -21.27850       -2.6673152E-18
  -21.11700       -2.6702457E-18
  -20.95550       -2.6753023E-18
  -20.79400       -2.6805931E-18
  -20.63250       -2.6841388E-18
  -20.47100       -2.6849737E-18
  -20.30950       -2.6836711E-18
  -20.14800       -2.6820113E-18
  -19.98650       -2.6819700E-18
  -19.82500       -2.6846002E-18
  -19.66350       -2.6894287E-18
  -19.50200       -2.6947032E-18
  -19.34050       -2.6983612E-18
  -19.17900       -2.6991708E-18
  -19.01750       -2.6974194E-18
  -18.85600       -2.6947563E-18
  -18.69450       -2.6932827E-18
  -18.53300       -2.6944046E-18
  -18.37150       -2.6980816E-18
  -18.21000       -2.7028931E-18
  -18.04850       -2.7068702E-18
  -17.88700       -2.7086168E-18
  -17.72550       -2.7080888E-18
  -17.56400       -2.7065997E-18
  -17.40250       -2.7060469E-18
  -17.24100       -2.7078132E-18
  -17.07950       -2.7119472E-18
  -16.91800       -2.7170997E-18
  -16.75650       -2.7212381E-18
  -16.59500       -2.7227551E-18
  -16.43350       -2.7213489E-18
  -16.27200       -2.7181881E-18
  -16.11050       -2.7152754E-18
  -15.94900       -2.7143636E-18
  -15.78750       -2.7160256E-18
  -15.62600       -2.7193962E-18
  -15.46450       -2.7227173E-18
  -15.30300       -2.7243998E-18
  -15.14150       -2.7239845E-18
  -14.98000       -2.7224658E-18
  -14.81850       -2.7217733E-18
  -14.65700       -2.7236909E-18
  -14.49550       -2.7288233E-18
  -14.33400       -2.7361919E-18
  -14.17250       -2.7437099E-18
  -14.01100       -2.7492907E-18
  -13.84950       -2.7519629E-18
  -13.68800       -2.7523736E-18
  -13.52650       -2.7523670E-18
  -13.36500       -2.7538726E-18
  -13.20350       -2.7577302E-18
  -13.04200       -2.7631325E-18
  -12.88050       -2.7680261E-18
  -12.71900       -2.7702527E-18
  -12.55750       -2.7687925E-18
  -12.39600       -2.7643936E-18
  -12.23450       -2.7592166E-18
  -12.07300       -2.7556778E-18
  -11.91150       -2.7551320E-18
  -11.75000       -2.7571446E-18
  -11.58850       -2.7597673E-18
  -11.42700       -2.7606816E-18
  -11.26550       -2.7585706E-18
  -11.10400       -2.7539438E-18
  -10.94250       -2.7489443E-18
  -10.78100       -2.7462332E-18
  -10.61950       -2.7475511E-18
  -10.45800       -2.7527504E-18
  -10.29650       -2.7598379E-18
  -10.13500       -2.7660310E-18
  -9.973500       -2.7692640E-18
  -9.812000       -2.7693171E-18
  -9.650500       -2.7679399E-18
  -9.489000       -2.7678681E-18
  -9.327500       -2.7712598E-18
  -9.166000       -2.7784021E-18
  -9.004500       -2.7874247E-18
  -8.843000       -2.7952085E-18
  -8.681500       -2.7990359E-18
  -8.520000       -2.7980929E-18
  -8.358500       -2.7939802E-18
  -8.197000       -2.7899137E-18
  -8.035500       -2.7890189E-18
  -7.874000       -2.7926325E-18
  -7.712500       -2.7995564E-18
  -7.551000       -2.8066985E-18
  -7.389500       -2.8107655E-18
  -7.228000       -2.8100872E-18
  -7.066500       -2.8055663E-18
  -6.905000       -2.8002086E-18
  -6.743500       -2.7974779E-18
  -6.582000       -2.7993630E-18
  -6.420500       -2.8052402E-18
  -6.259000       -2.8121639E-18
  -6.097500       -2.8164565E-18
  -5.936000       -2.8157240E-18
  -5.774500       -2.8102057E-18
  -5.613000       -2.8027139E-18
  -5.451500       -2.7971836E-18
  -5.290000       -2.7966065E-18
  -5.128500       -2.8014570E-18
  -4.967000       -2.8094602E-18
  -4.805500       -2.8168333E-18
  -4.644000       -2.8203300E-18
  -4.482500       -2.8189877E-18
  -4.321000       -2.8146326E-18
  -4.159500       -2.8108691E-18
  -3.998000       -2.8110906E-18
  -3.836500       -2.8165971E-18
  -3.675000       -2.8258345E-18
  -3.513500       -2.8351808E-18
  -3.352000       -2.8408803E-18
  -3.190500       -2.8410815E-18
  -3.029000       -2.8368695E-18
  -2.867500       -2.8317106E-18
  -2.706000       -2.8295932E-18
  -2.544500       -2.8328767E-18
  -2.383000       -2.8410159E-18
  -2.221500       -2.8508654E-18
  -2.060000       -2.8583997E-18
  -1.898500       -2.8609075E-18
  -1.737000       -2.8584533E-18
  -1.575500       -2.8537961E-18
  -1.414000       -2.8508186E-18
  -1.252500       -2.8523363E-18
  -1.091000       -2.8585193E-18
 -0.9295000       -2.8667956E-18
 -0.7680000       -2.8732801E-18
 -0.6065000       -2.8749206E-18
 -0.4450000       -2.8711636E-18
 -0.2835000       -2.8642289E-18
 -0.1220000       -2.8578577E-18
  3.9500002E-02   -2.8552370E-18
  0.2010000       -2.8572609E-18
  0.3625000       -2.8620799E-18
  0.5240000       -2.8661742E-18
  0.6855000       -2.8663392E-18
  0.8470000       -2.8614800E-18
   1.008500       -2.8532346E-18
   1.170000       -2.8451001E-18
   1.331500       -2.8405577E-18
   1.493000       -2.8412306E-18
   1.654500       -2.8460828E-18
   1.816000       -2.8520884E-18
   1.977500       -2.8559908E-18
   2.139000       -2.8561703E-18
   2.300500       -2.8535539E-18
   2.462000       -2.8510732E-18
   2.623500       -2.8519570E-18
   2.785000       -2.8578302E-18
   2.946500       -2.8676927E-18
   3.108000       -2.8783728E-18
   3.269500       -2.8862065E-18
   3.431000       -2.8890180E-18
   3.592500       -2.8872725E-18
   3.754000       -2.8837454E-18
   3.915500       -2.8818968E-18
   4.077000       -2.8838755E-18
   4.238500       -2.8893092E-18
   4.400000       -2.8955650E-18
   4.561500       -2.8993243E-18
   4.723000       -2.8985589E-18
   4.884500       -2.8937632E-18
   5.046000       -2.8877390E-18
   5.207500       -2.8840444E-18
   5.369000       -2.8849965E-18
   5.530500       -2.8903674E-18
   5.692000       -2.8975223E-18
   5.853500       -2.9029145E-18
   6.015000       -2.9040847E-18
   6.176500       -2.9010256E-18
   6.338000       -2.8961585E-18
   6.499500       -2.8929335E-18
   6.661000       -2.8938562E-18
   6.822500       -2.8990557E-18
   6.984000       -2.9062002E-18
   7.145500       -2.9118224E-18
   7.307000       -2.9133008E-18
   7.468500       -2.9103899E-18
   7.630000       -2.9054101E-18
   7.791500       -2.9019820E-18
   7.953000       -2.9029978E-18
   8.114500       -2.9089651E-18
   8.276000       -2.9176658E-18
   8.437500       -2.9253480E-18
   8.599000       -2.9288052E-18
   8.760500       -2.9271866E-18
   8.922000       -2.9225027E-18
   9.083500       -2.9185052E-18
   9.245000       -2.9185529E-18
   9.406500       -2.9236637E-18
   9.568000       -2.9318685E-18
   9.729500       -2.9392736E-18
   9.891000       -2.9422442E-18
   10.05250       -2.9394984E-18
   10.21400       -2.9328983E-18
   10.37550       -2.9264618E-18
   10.53700       -2.9241128E-18
   10.69850       -2.9274455E-18
   10.86000       -2.9347777E-18
   11.02150       -2.9420655E-18
   11.18300       -2.9451933E-18
   11.34450       -2.9423460E-18
   11.50600       -2.9351164E-18
   11.66750       -2.9277044E-18
   11.82900       -2.9246160E-18
   11.99050       -2.9281435E-18
   12.15200       -2.9370381E-18
   12.31350       -2.9471463E-18
   12.47500       -2.9536696E-18
   12.63650       -2.9538103E-18
   12.79800       -2.9483190E-18
   12.95950       -2.9410756E-18
   13.12100       -2.9369147E-18
   13.28250       -2.9388896E-18
   13.44400       -2.9464957E-18
   13.60550       -2.9558596E-18
   13.76700       -2.9618302E-18
   13.92850       -2.9608514E-18
   14.09000       -2.9530232E-18
   14.25150       -2.9421938E-18
   14.41300       -2.9339813E-18
   14.57450       -2.9327775E-18
   14.73600       -2.9393677E-18
   14.89750       -2.9504856E-18
   15.05900       -2.9605880E-18
   15.22050       -2.9648984E-18
   15.38200       -2.9620595E-18
   15.54350       -2.9549077E-18
   15.70500       -2.9489084E-18
   15.86650       -2.9490885E-18
   16.02800       -2.9571579E-18
   16.18950       -2.9704312E-18
   16.35100       -2.9831808E-18
   16.51250       -2.9897049E-18
   16.67400       -2.9874347E-18
   16.83550       -2.9783653E-18
   16.99700       -2.9680022E-18
   17.15850       -2.9623875E-18
   17.32000       -2.9648318E-18
   17.48150       -2.9741513E-18
   17.64300       -2.9853724E-18
   17.80450       -2.9925118E-18
   17.96600       -2.9918972E-18
   18.12750       -2.9842025E-18
   18.28900       -2.9740971E-18
   18.45050       -2.9676997E-18
   18.61200       -2.9692436E-18
   18.77350       -2.9787657E-18
   18.93500       -2.9920765E-18
   19.09650       -3.0030199E-18
   19.25800       -3.0067773E-18
   19.41950       -3.0024276E-18
   19.58100       -2.9933801E-18
   19.74250       -2.9854725E-18
   19.90400       -2.9837720E-18
   20.06550       -2.9898189E-18
   20.22700       -3.0007997E-18
   20.38850       -3.0110917E-18
   20.55000       -3.0153320E-18
   20.71150       -3.0113359E-18
   20.87300       -3.0012789E-18
   21.03450       -2.9905032E-18
   21.19600       -2.9846172E-18
   21.35750       -2.9864769E-18
   21.51900       -2.9946945E-18
   21.68050       -3.0044840E-18
   21.84200       -3.0103570E-18
   22.00350       -3.0091700E-18
   22.16500       -3.0018372E-18
   22.32650       -2.9927668E-18
   22.48800       -2.9873651E-18
   22.64950       -2.9890078E-18
   22.81100       -2.9971740E-18
   22.97250       -3.0077637E-18
   23.13400       -3.0153858E-18
   23.29550       -3.0163240E-18
   23.45700       -3.0105329E-18
   23.61850       -3.0015727E-18
   23.78000       -2.9945729E-18
   23.94150       -2.9933902E-18
   24.10300       -2.9985547E-18
   24.26450       -3.0071185E-18
   24.42600       -3.0144350E-18
   24.58750       -3.0168224E-18
   24.74900       -3.0136165E-18
   24.91050       -3.0074856E-18
   25.07200       -3.0028780E-18
   25.23350       -3.0034984E-18
   25.39500       -3.0102323E-18
   25.55650       -3.0206620E-18
   25.71800       -3.0304202E-18
   25.87950       -3.0355973E-18
   26.04100       -3.0348516E-18
   26.20250       -3.0300618E-18
   26.36400       -3.0251792E-18
   26.52550       -3.0239531E-18
   26.68700       -3.0278136E-18
   26.84850       -3.0350950E-18
   27.01000       -3.0420330E-18
   27.17150       -3.0449575E-18
   27.33300       -3.0424303E-18
   27.49450       -3.0361023E-18
   27.65600       -3.0297996E-18
   27.81750       -3.0273582E-18
   27.97900       -3.0304537E-18
   28.14050       -3.0376638E-18
   28.30200       -3.0453039E-18
   28.46350       -3.0495573E-18
   28.62500       -3.0486771E-18
   28.78650       -3.0439798E-18
   28.94800       -3.0390634E-18
   29.10950       -3.0376932E-18
   29.27100       -3.0415878E-18
   29.43250       -3.0493945E-18
   29.59400       -3.0574409E-18
   29.75550       -3.0618347E-18
   29.91700       -3.0606890E-18
   30.07850       -3.0552023E-18
   30.24000       -3.0489648E-18
   30.40150       -3.0458928E-18
   30.56300       -3.0479837E-18
   30.72450       -3.0541779E-18
   30.88600       -3.0609852E-18
   31.04750       -3.0645129E-18
   31.20900       -3.0627320E-18
   31.37050       -3.0566859E-18
   31.53200       -3.0499475E-18
   31.69350       -3.0466187E-18
   31.85500       -3.0489929E-18
   32.01650       -3.0562136E-18
   32.17800       -3.0646911E-18
   32.33950       -3.0700877E-18
   32.50100       -3.0697630E-18
   32.66250       -3.0643024E-18
   32.82400       -3.0572362E-18
   32.98550       -3.0530777E-18
   33.14700       -3.0547567E-18
   33.30850       -3.0619027E-18
   33.47000       -3.0709756E-18
   33.63150       -3.0772200E-18
   33.79300       -3.0773786E-18
   33.95450       -3.0716211E-18
   34.11600       -3.0635591E-18
   34.27750       -3.0582675E-18
   34.43900       -3.0594081E-18
   34.60050       -3.0670827E-18
   34.76200       -3.0776711E-18
   34.92350       -3.0858020E-18
   35.08500       -3.0873675E-18
   35.24650       -3.0818862E-18
   35.40800       -3.0728490E-18
   35.56950       -3.0658062E-18
   35.73100       -3.0652454E-18
   35.89250       -3.0720138E-18
   36.05400       -3.0827696E-18
   36.21550       -3.0917987E-18
   36.37700       -3.0942000E-18
   36.53850       -3.0886674E-18
   36.70000       -3.0783005E-18
   36.86150       -3.0689722E-18
   37.02300       -3.0661315E-18
   37.18450       -3.0717954E-18
   37.34600       -3.0834013E-18
   37.50750       -3.0951779E-18
   37.66900       -3.1013034E-18
   37.83050       -3.0991331E-18
   37.99200       -3.0907045E-18
   38.15350       -3.0816723E-18
   38.31500       -3.0782226E-18
   38.47650       -3.0836301E-18
   38.63800       -3.0963444E-18
   38.79950       -3.1106900E-18
   38.96100       -3.1198525E-18
   39.12250       -3.1195549E-18
   39.28400       -3.1104148E-18
   39.44550       -3.0976514E-18
   39.60700       -3.0882670E-18
   39.76850       -3.0872132E-18
   39.93000       -3.0946516E-18
   40.09150       -3.1058382E-18
   40.25300       -3.1137376E-18
   40.41450       -3.1129538E-18
   40.57600       -3.1028188E-18
   40.73750       -3.0878977E-18
   40.89900       -3.0755992E-18
   41.06050       -3.0721804E-18
   41.22200       -3.0793436E-18
   41.38350       -3.0933089E-18
   41.54500       -3.1068844E-18
   41.70650       -3.1133920E-18
   41.86800       -3.1102924E-18
   42.02950       -3.1005258E-18
   42.19100       -3.0908346E-18
   42.35250       -3.0880116E-18
   42.51400       -3.0951314E-18
   42.67550       -3.1098378E-18
   42.83700       -3.1256082E-18
   42.99850       -3.1352827E-18
   43.16000       -3.1349173E-18
   43.32150       -3.1258721E-18
   43.48300       -3.1140147E-18
   43.64450       -3.1065066E-18
   43.80600       -3.1079159E-18
   43.96750       -3.1177784E-18
   44.12900       -3.1309113E-18
   44.29050       -3.1402957E-18
   44.45200       -3.1409382E-18
   44.61350       -3.1326091E-18
   44.77500       -3.1199671E-18
   44.93650       -3.1100165E-18
   45.09800       -3.1082964E-18
   45.25950       -3.1158785E-18
   45.42100       -3.1288220E-18
   45.58250       -3.1403643E-18
   45.74400       -3.1446435E-18
   45.90550       -3.1398908E-18
   46.06700       -3.1293320E-18
   46.22850       -3.1193301E-18
   46.39000       -3.1158132E-18
   46.55150       -3.1210013E-18
   46.71300       -3.1322319E-18
   46.87450       -3.1435057E-18
   47.03600       -3.1488586E-18
   47.19750       -3.1456514E-18
   47.35900       -3.1359633E-18
   47.52050       -3.1253425E-18
   47.68200       -3.1196691E-18
   47.84350       -3.1219172E-18
   48.00500       -3.1306110E-18
   48.16650       -3.1407762E-18
   48.32800       -3.1467948E-18
   48.48950       -3.1455189E-18
   48.65100       -3.1379421E-18
   48.81250       -3.1285336E-18
   48.97400       -3.1226842E-18
   49.13550       -3.1237192E-18
   49.29700       -3.1311321E-18
   49.45850       -3.1409837E-18
   49.62000       -3.1481820E-18
   49.78150       -3.1493400E-18
   49.94300       -3.1446233E-18
   50.10450       -3.1375854E-18
   50.26600       -3.1331273E-18
   50.42750       -3.1347453E-18
   50.58900       -3.1425882E-18
   50.75050       -3.1534056E-18
   50.91200       -3.1623956E-18
   51.07350       -3.1658814E-18
   51.23500       -3.1633095E-18
   51.39650       -3.1574479E-18
   51.55800       -3.1526943E-18
   51.71950       -3.1524953E-18
   51.88100       -3.1573598E-18
   52.04250       -3.1646042E-18
   52.20400       -3.1699631E-18
   52.36550       -3.1701064E-18
   52.52700       -3.1645982E-18
   52.68850       -3.1561461E-18
   52.85000       -3.1490237E-18
   53.01150       -3.1466041E-18
   53.17300       -3.1494676E-18
   53.33450       -3.1551723E-18
   53.49600       -3.1597927E-18
   53.65750       -3.1602917E-18
   53.81900       -3.1563181E-18
   53.98050       -3.1503951E-18
   54.14200       -3.1464044E-18
   54.30350       -3.1472847E-18
   54.46500       -3.1532998E-18
   54.62650       -3.1618801E-18
   54.78800       -3.1691097E-18
   54.94950       -3.1719713E-18
   55.11100       -3.1700415E-18
   55.27250       -3.1656649E-18
   55.43400       -3.1625257E-18
   55.59550       -3.1634460E-18
   55.75700       -3.1686913E-18
   55.91850       -3.1757681E-18
   56.08000       -3.1808412E-18
   56.24150       -3.1809766E-18
   56.40300       -3.1759093E-18
   56.56450       -3.1682968E-18
   56.72600       -3.1622823E-18
   56.88750       -3.1611596E-18
   57.04900       -3.1654715E-18
   57.21050       -3.1726595E-18
   57.37200       -3.1785137E-18
   57.53350       -3.1796401E-18
   57.69500       -3.1755170E-18
   57.85650       -3.1689258E-18
   58.01800       -3.1644237E-18
   58.17950       -3.1656984E-18
   58.34100       -3.1733248E-18
   58.50250       -3.1842595E-18
   58.66400       -3.1934346E-18
   58.82550       -3.1965855E-18
   58.98700       -3.1927093E-18
   59.14850       -3.1847026E-18
   59.31000       -3.1777599E-18
   59.47150       -3.1764108E-18
   59.63300       -3.1818911E-18
   59.79450       -3.1913809E-18
   59.95600       -3.1995787E-18
   60.11750       -3.2017372E-18
   60.27900       -3.1964248E-18
   60.44050       -3.1864283E-18
   60.60200       -3.1772681E-18
   60.76350       -3.1741323E-18
   60.92500       -3.1789560E-18
   61.08650       -3.1892879E-18
   61.24800       -3.1995979E-18
   61.40950       -3.2043139E-18
   61.57100       -3.2009141E-18
   61.73250       -3.1913532E-18
   61.89400       -3.1810337E-18
   62.05550       -3.1758696E-18
   62.21700       -3.1790381E-18
   62.37850       -3.1891961E-18
   62.54000       -3.2011530E-18
   62.70150       -3.2086781E-18
   62.86300       -3.2079193E-18
   63.02450       -3.1995687E-18
   63.18600       -3.1885451E-18
   63.34750       -3.1813277E-18
   63.50900       -3.1823768E-18
   63.67050       -3.1916154E-18
   63.83200       -3.2043881E-18
   63.99350       -3.2139733E-18
   64.15500       -3.2152891E-18
   64.31650       -3.2077429E-18
   64.47800       -3.1956101E-18
   64.63950       -3.1856957E-18
   64.80100       -3.1835696E-18
   64.96250       -3.1904830E-18
   65.12400       -3.2026934E-18
   65.28550       -3.2135700E-18
   65.44700       -3.2172913E-18
   65.60850       -3.2120579E-18
   65.77000       -3.2010461E-18
   65.93150       -3.1905936E-18
   66.09300       -3.1866591E-18
   66.25450       -3.1915486E-18
   66.41600       -3.2027021E-18
   66.57750       -3.2141720E-18
   66.73900       -3.2199271E-18
   66.90050       -3.2171310E-18
   67.06200       -3.2076302E-18
   67.22350       -3.1968847E-18
   67.38500       -3.1909718E-18
   67.54650       -3.1933155E-18
   67.70800       -3.2028942E-18
   67.86950       -3.2148670E-18
   68.03100       -3.2232447E-18
   68.19250       -3.2241252E-18
   68.35400       -3.2177504E-18
   68.51550       -3.2082854E-18
   68.67700       -3.2014791E-18
   68.83850       -3.2014987E-18
   69.00000       -3.2086673E-18
   69.16150       -3.2193346E-18
   69.32300       -3.2279431E-18
   69.48450       -3.2301355E-18
   69.64600       -3.2251658E-18
   69.80750       -3.2162875E-18
   69.96900       -3.2089113E-18
   70.13050       -3.2075994E-18
   70.29200       -3.2135756E-18
   70.45350       -3.2241259E-18
   70.61500       -3.2341751E-18
   70.77650       -3.2391092E-18
   70.93800       -3.2372483E-18
   71.09950       -3.2306103E-18
   71.26100       -3.2236043E-18
   71.42250       -3.2204660E-18
   71.58400       -3.2229192E-18
   71.74550       -3.2293359E-18
   71.90700       -3.2357852E-18
   72.06850       -3.2382977E-18
   72.23000       -3.2350568E-18
   72.39150       -3.2273401E-18
   72.55300       -3.2187601E-18
   72.71450       -3.2132954E-18
   72.87600       -3.2132046E-18
   73.03750       -3.2179338E-18
   73.19900       -3.2245512E-18
   73.36050       -3.2294076E-18
   73.52200       -3.2301060E-18
   73.68350       -3.2267354E-18
   73.84500       -3.2217473E-18
   74.00650       -3.2185684E-18
   74.16800       -3.2197027E-18
   74.32950       -3.2253511E-18
   74.49100       -3.2333051E-18
   74.65250       -3.2401771E-18
   74.81400       -3.2432867E-18
   74.97550       -3.2421456E-18
   75.13700       -3.2386942E-18
   75.29850       -3.2361558E-18
   75.46000       -3.2371504E-18
   75.62150       -3.2421468E-18
   75.78300       -3.2491537E-18
   75.94450       -3.2548358E-18
   76.10600       -3.2564095E-18
   76.26750       -3.2532141E-18
   76.42900       -3.2470342E-18
   76.59050       -3.2410161E-18
   76.75200       -3.2378453E-18
   76.91350       -3.2382632E-18
   77.07500       -3.2407716E-18
   77.23650       -3.2426468E-18
   77.39800       -3.2416338E-18
   77.55950       -3.2373153E-18
   77.72100       -3.2313742E-18
   77.88250       -3.2266252E-18
   78.04400       -3.2254003E-18
   78.20550       -3.2282219E-18
   78.36700       -3.2335055E-18
   78.52850       -3.2384311E-18
   78.69000       -3.2404846E-18
   78.85150       -3.2388218E-18
   79.01300       -3.2347198E-18
   79.17450       -3.2308695E-18
   79.33600       -3.2298806E-18
   79.49750       -3.2328051E-18
   79.65900       -3.2385122E-18
   79.82050       -3.2442917E-18
   79.98200       -3.2473951E-18
   80.14350       -3.2466607E-18
   80.30500       -3.2432873E-18
   80.46650       -3.2402478E-18
   80.62800       -3.2406062E-18
   80.78950       -3.2456520E-18
   80.95100       -3.2539608E-18
   81.11250       -3.2620205E-18
   81.27400       -3.2661603E-18
   81.43550       -3.2647036E-18
   81.59700       -3.2590548E-18
   81.75850       -3.2530081E-18
   81.92000       -3.2506068E-18
   82.08150       -3.2537780E-18
   82.24300       -3.2611403E-18
   82.40450       -3.2687419E-18
   82.56600       -3.2723488E-18
   82.72750       -3.2699676E-18
   82.88900       -3.2631082E-18
   83.05050       -3.2559988E-18
   83.21200       -3.2531717E-18
   83.37350       -3.2568167E-18
   83.53500       -3.2654369E-18
   83.69650       -3.2746023E-18
   83.85800       -3.2793989E-18
   84.01950       -3.2771984E-18
   84.18100       -3.2691886E-18
   84.34250       -3.2597916E-18
   84.50400       -3.2542464E-18
   84.66550       -3.2556944E-18
   84.82700       -3.2633820E-18
   84.98850       -3.2730122E-18
   85.15000       -3.2790920E-18
   85.31150       -3.2780061E-18
   85.47300       -3.2701229E-18
   85.63450       -3.2597089E-18
   85.79600       -3.2526266E-18
   85.95750       -3.2530317E-18
   86.11900       -3.2609118E-18
   86.28050       -3.2719245E-18
   86.44200       -3.2797378E-18
   86.60350       -3.2796237E-18
   86.76500       -3.2712627E-18
   86.92650       -3.2590904E-18
   87.08800       -3.2498917E-18
   87.24950       -3.2489574E-18
   87.41100       -3.2570028E-18
   87.57250       -3.2696773E-18
   87.73400       -3.2800131E-18
   87.89550       -3.2824256E-18
   88.05700       -3.2759436E-18
   88.21850       -3.2647495E-18
   88.38000       -3.2557107E-18
   88.54150       -3.2543448E-18
   88.70300       -3.2615967E-18
   88.86450       -3.2732949E-18
   89.02600       -3.2825862E-18
   89.18750       -3.2839039E-18
   89.34900       -3.2761686E-18
   89.51050       -3.2633987E-18
   89.67200       -3.2524223E-18
   89.83350       -3.2490343E-18
   89.99500       -3.2548118E-18
   90.15650       -3.2663514E-18
   90.31800       -3.2773026E-18
   90.47950       -3.2819886E-18
   90.64100       -3.2785657E-18
   90.80250       -3.2699715E-18
   90.96400       -3.2621729E-18
   91.12550       -3.2607158E-18
   91.28700       -3.2675289E-18
   91.44850       -3.2797842E-18
   91.61000       -3.2914666E-18
   91.77150       -3.2967860E-18
   91.93300       -3.2934843E-18
   92.09450       -3.2841511E-18
   92.25600       -3.2747592E-18
   92.41750       -3.2712400E-18
   92.57900       -3.2760561E-18
   92.74050       -3.2867716E-18
   92.90200       -3.2974858E-18
   93.06350       -3.3023157E-18
   93.22500       -3.2988654E-18
   93.38650       -3.2896253E-18
   93.54800       -3.2804505E-18
   93.70950       -3.2770437E-18
   93.87100       -3.2815574E-18
   94.03250       -3.2913579E-18
   94.19400       -3.3006676E-18
   94.35550       -3.3040739E-18
   94.51700       -3.2997695E-18
   94.67850       -3.2905909E-18
   94.84000       -3.2822674E-18
   95.00150       -3.2799792E-18
   95.16300       -3.2853070E-18
   95.32450       -3.2953761E-18
   95.48600       -3.3046354E-18
   95.64750       -3.3081502E-18
   95.80900       -3.3044453E-18
   95.97050       -3.2962583E-18
   96.13200       -3.2888321E-18
   96.29350       -3.2867898E-18
   96.45500       -3.2914391E-18
   96.61650       -3.3000484E-18
   96.77800       -3.3074833E-18
   96.93950       -3.3092274E-18
   97.10100       -3.3040350E-18
   97.26250       -3.2946804E-18
   97.42400       -3.2863760E-18
   97.58550       -3.2837575E-18
   97.74700       -3.2881740E-18
   97.90850       -3.2968599E-18
   98.07000       -3.3045125E-18
   98.23150       -3.3063968E-18
   98.39300       -3.3011746E-18
   98.55450       -3.2917613E-18
   98.71600       -3.2836562E-18
   98.87750       -3.2816842E-18
   99.03900       -3.2870729E-18
   99.20050       -3.2966440E-18
   99.36200       -3.3046504E-18
   99.52350       -3.3062126E-18
   99.68500       -3.3003007E-18
   99.84650       -3.2904511E-18
   100.0080       -3.2827312E-18
   100.1695       -3.2821449E-18
   100.3310       -3.2896307E-18
   100.4925       -3.3014662E-18
   100.6540       -3.3114495E-18
   100.8155       -3.3145508E-18
   100.9770       -3.3098501E-18
   101.1385       -3.3010274E-18
   101.3000       -3.2941347E-18
   101.4615       -3.2939906E-18
   101.6230       -3.3013361E-18
   101.7845       -3.3124088E-18
   101.9460       -3.3211583E-18
   102.1075       -3.3227727E-18
   102.2690       -3.3164599E-18
   102.4305       -3.3058869E-18
   102.5920       -3.2970716E-18
   102.7535       -3.2949555E-18
   102.9150       -3.3006260E-18
   103.0765       -3.3107370E-18
   103.2380       -3.3194361E-18
   103.3995       -3.3216960E-18
   103.5610       -3.3161658E-18
   103.7225       -3.3059382E-18
   103.8840       -3.2967999E-18
   104.0455       -3.2939562E-18
   104.2070       -3.2990804E-18
   104.3685       -3.3093567E-18
   104.5300       -3.3190744E-18
   104.6915       -3.3228811E-18
   104.8530       -3.3188473E-18
   105.0145       -3.3095778E-18
   105.1760       -3.3007093E-18
   105.3375       -3.2976461E-18
   105.4990       -3.3024257E-18
   105.6605       -3.3125471E-18
   105.8220       -3.3224414E-18
   105.9835       -3.3267093E-18
   106.1450       -3.3232215E-18
   106.3065       -3.3142838E-18
   106.4680       -3.3052191E-18
   106.6295       -3.3012476E-18
   106.7910       -3.3045249E-18
   106.9525       -3.3130405E-18
   107.1140       -3.3219505E-18
   107.2755       -3.3264731E-18
   107.4370       -3.3246056E-18
   107.5985       -3.3181229E-18
   107.7600       -3.3113913E-18
   107.9215       -3.3087835E-18
   108.0830       -3.3122214E-18
   108.2445       -3.3201973E-18
   108.4060       -3.3287253E-18
   108.5675       -3.3335947E-18
   108.7290       -3.3326313E-18
   108.8905       -3.3267504E-18
   109.0520       -3.3193141E-18
   109.2135       -3.3142269E-18
   109.3750       -3.3138514E-18
   109.5365       -3.3178458E-18
   109.6980       -3.3235050E-18
   109.8595       -3.3273582E-18
   110.0210       -3.3271353E-18
   110.1825       -3.3230225E-18
   110.3440       -3.3175268E-18
   110.5055       -3.3140464E-18
   110.6670       -3.3149604E-18
   110.8285       -3.3203127E-18
   110.9900       -3.3278233E-18
   111.1515       -3.3341928E-18
   111.3130       -3.3369370E-18
   111.4745       -3.3357154E-18
   111.6360       -3.3324197E-18
   111.7975       -3.3300048E-18
   111.9590       -3.3307674E-18
   112.1205       -3.3350640E-18
   112.2820       -3.3411622E-18
   112.4435       -3.3462475E-18
   112.6050       -3.3479744E-18
   112.7665       -3.3456803E-18
   112.9280       -3.3406473E-18
   113.0895       -3.3353378E-18
   113.2510       -3.3320624E-18
   113.4125       -3.3318041E-18
   113.5740       -3.3337891E-18
   113.7355       -3.3359880E-18
   113.8970       -3.3362496E-18
   114.0585       -3.3334682E-18
   114.2200       -3.3281906E-18
   114.3815       -3.3223627E-18
   114.5430       -3.3183370E-18
   114.7045       -3.3176378E-18
   114.8660       -3.3201218E-18
   115.0275       -3.3240005E-18
   115.1890       -3.3267626E-18
   115.3505       -3.3265395E-18
   115.5120       -3.3231772E-18
   115.6735       -3.3183974E-18
   115.8350       -3.3149075E-18
   115.9965       -3.3149232E-18
   116.1580       -3.3189090E-18
   116.3195       -3.3252677E-18
   116.4810       -3.3312038E-18
   116.6425       -3.3343005E-18
   116.8040       -3.3339231E-18
   116.9655       -3.3316091E-18
   117.1270       -3.3301832E-18
   117.2885       -3.3320827E-18
   117.4500       -3.3378570E-18
   117.6115       -3.3457375E-18
   117.7730       -3.3525446E-18
   117.9345       -3.3554408E-18
   118.0960       -3.3535275E-18
   118.2575       -3.3483516E-18
   118.4190       -3.3430130E-18
   118.5805       -3.3403780E-18
   118.7420       -3.3414494E-18