  -27.90000        9.0751466E-18
  -27.73850        9.1021954E-18
  -27.57700        9.1444668E-18
  -27.41550        9.1850888E-18
  -27.25400        9.2108621E-18
  -27.09250        9.2188659E-18
  -26.93100        9.2174241E-18
  -26.76950        9.2209785E-18
  -26.60800        9.2416919E-18
  -26.44650        9.2823925E-18
  -26.28500        9.3346935E-18
  -26.12350        9.3833110E-18
  -25.96200        9.4142278E-18
  -25.80050        9.4222588E-18
  -25.63900        9.4138944E-18
  -25.47750        9.4038731E-18
  -25.31600        9.4073357E-18
  -25.15450        9.4317780E-18
  -24.99300        9.4731743E-18
  -24.83150        9.5183169E-18
  -24.67000        9.5520733E-18
  -24.50850        9.5656051E-18
  -24.34700        9.5610821E-18
  -24.18550        9.5503635E-18
  -24.02400        9.5484279E-18
  -23.86250        9.5651609E-18
  -23.70100        9.6000076E-18
  -23.53950        9.6423708E-18
  -23.37800        9.6774978E-18
  -23.21650        9.6945775E-18
  -23.05500        9.6926046E-18
  -22.89350        9.6808264E-18
  -22.73200        9.6735762E-18
  -22.57050        9.6823683E-18
  -22.40900        9.7096214E-18
  -22.24750        9.7474070E-18
  -22.08600        9.7818632E-18
  -21.92450        9.8008106E-18
  -21.76300        9.8003689E-18
  -21.60150        9.7869876E-18
  -21.44000        9.7738396E-18
  -21.27850        9.7736179E-18
  -21.11700        9.7917025E-18
  -20.95550        9.8234431E-18
  -20.79400        9.8569563E-18
  -20.63250        9.8798361E-18
  -20.47100        9.8860210E-18
  -20.30950        9.8790329E-18
  -20.14800        9.8698372E-18
  -19.98650        9.8705618E-18
  -19.82500        9.8876001E-18
  -19.66350        9.9179460E-18
  -19.50200        9.9507900E-18
  -19.34050        9.9734837E-18
  -19.17900        9.9785337E-18
  -19.01750        9.9677431E-18
  -18.85600        9.9512028E-18
  -18.69450        9.9417390E-18
  -18.53300        9.9479305E-18
  -18.37150        9.9695819E-18
  -18.21000        9.9981519E-18
  -18.04850        1.0021817E-17
  -17.88700        1.0032276E-17
  -17.72550        1.0029438E-17
  -17.56400        1.0021344E-17
  -17.40250        1.0019419E-17
  -17.24100        1.0031766E-17
  -17.07950        1.0058303E-17
  -16.91800        1.0090525E-17
  -16.75650        1.0116033E-17
  -16.59500        1.0125306E-17
  -16.43350        1.0116944E-17
  -16.27200        1.0098431E-17
  -16.11050        1.0082031E-17
  -15.94900        1.0078101E-17
  -15.78750        1.0089577E-17
  -15.62600        1.0110712E-17
  -15.46450        1.0130755E-17
  -15.30300        1.0140449E-17
  -15.14150        1.0137687E-17
  -14.98000        1.0129042E-17
  -14.81850        1.0126288E-17
  -14.65700        1.0139783E-17
  -14.49550        1.0172436E-17
  -14.33400        1.0217693E-17
  -14.17250        1.0262754E-17
  -14.01100        1.0295297E-17
  -13.84950        1.0309985E-17
  -13.68800        1.0311103E-17
  -13.52650        1.0309822E-17
  -13.36500        1.0317597E-17
  -13.20350        1.0339399E-17
  -13.04200        1.0370623E-17
  -12.88050        1.0399461E-17
  -12.71900        1.0413476E-17
  -12.55750        1.0406702E-17
  -12.39600        1.0383252E-17
  -12.23450        1.0355338E-17
  -12.07300        1.0336745E-17
  -11.91150        1.0335369E-17
  -11.75000        1.0348987E-17
  -11.58850        1.0366678E-17
  -11.42700        1.0375147E-17
  -11.26550        1.0366459E-17
  -11.10400        1.0342872E-17
  -10.94250        1.0315995E-17
  -10.78100        1.0300680E-17
  -10.61950        1.0306962E-17
  -10.45800        1.0334518E-17
  -10.29650        1.0372739E-17
  -10.13500        1.0406428E-17
  -9.973500        1.0424028E-17
  -9.812000        1.0423833E-17
  -9.650500        1.0414755E-17
  -9.489000        1.0411169E-17
  -9.327500        1.0424678E-17
  -9.166000        1.0457346E-17
  -9.004500        1.0500218E-17
  -8.843000        1.0538010E-17
  -8.681500        1.0557448E-17
  -8.520000        1.0554684E-17
  -8.358500        1.0537652E-17
  -8.197000        1.0521997E-17
  -8.035500        1.0522728E-17
  -7.874000        1.0546143E-17
  -7.712500        1.0586424E-17
  -7.551000        1.0628819E-17
  -7.389500        1.0657678E-17
  -7.228000        1.0664940E-17
  -7.066500        1.0654416E-17
  -6.905000        1.0639501E-17
  -6.743500        1.0635577E-17
  -6.582000        1.0651309E-17
  -6.420500        1.0683646E-17
  -6.259000        1.0719327E-17
  -6.097500        1.0742114E-17
  -5.936000        1.0741800E-17
  -5.774500        1.0720041E-17
  -5.613000        1.0689782E-17
  -5.451500        1.0668526E-17
  -5.290000        1.0669089E-17
  -5.128500        1.0692884E-17
  -4.967000        1.0729338E-17
  -4.805500        1.0761784E-17
  -4.644000        1.0776552E-17
  -4.482500        1.0770309E-17
  -4.321000        1.0751656E-17
  -4.159500        1.0736133E-17
  -3.998000        1.0737431E-17
  -3.836500        1.0759649E-17
  -3.675000        1.0794877E-17
  -3.513500        1.0827441E-17
  -3.352000        1.0842451E-17
  -3.190500        1.0834001E-17
  -3.029000        1.0808508E-17
  -2.867500        1.0781377E-17
  -2.706000        1.0768838E-17
  -2.544500        1.0779369E-17
  -2.383000        1.0809390E-17
  -2.221500        1.0845517E-17
  -2.060000        1.0872082E-17
  -1.898500        1.0879785E-17
  -1.737000        1.0870727E-17
  -1.575500        1.0857124E-17
  -1.414000        1.0854450E-17
  -1.252500        1.0872814E-17
  -1.091000        1.0911291E-17
 -0.9295000        1.0958313E-17
 -0.7680000        1.0997829E-17
 -0.6065000        1.1017880E-17
 -0.4450000        1.1016837E-17
 -0.2835000        1.1003936E-17
 -0.1220000        1.0993867E-17
  3.9500002E-02    1.0998471E-17
  0.2010000        1.1020112E-17
  0.3625000        1.1050396E-17
  0.5240000        1.1074852E-17
  0.6855000        1.1080985E-17
  0.8470000        1.1065215E-17
   1.008500        1.1034930E-17
   1.170000        1.1004570E-17
   1.331500        1.0987969E-17
   1.493000        1.0991219E-17
   1.654500        1.1009925E-17
   1.816000        1.1032267E-17
   1.977500        1.1046026E-17
   2.139000        1.1045597E-17
   2.300500        1.1035110E-17
   2.462000        1.1025973E-17
   2.623500        1.1030299E-17
   2.785000        1.1053910E-17
   2.946500        1.1092825E-17
   3.108000        1.1135132E-17
   3.269500        1.1167181E-17
   3.431000        1.1180654E-17
   3.592500        1.1176635E-17
   3.754000        1.1164536E-17
   3.915500        1.1156568E-17
   4.077000        1.1160910E-17
   4.238500        1.1177360E-17
   4.400000        1.1197844E-17
   4.561500        1.1211393E-17
   4.723000        1.1210719E-17
   4.884500        1.1196656E-17
   5.046000        1.1177930E-17
   5.207500        1.1166431E-17
   5.369000        1.1170642E-17
   5.530500        1.1190938E-17
   5.692000        1.1219400E-17
   5.853500        1.1244213E-17
   6.015000        1.1256185E-17
   6.176500        1.1253704E-17
   6.338000        1.1243358E-17
   6.499500        1.1235956E-17
   6.661000        1.1240217E-17
   6.822500        1.1257786E-17
   6.984000        1.1282377E-17
   7.145500        1.1303492E-17
   7.307000        1.1312572E-17
   7.468500        1.1308033E-17
   7.630000        1.1296314E-17
   7.791500        1.1288337E-17
   7.953000        1.1293363E-17
   8.114500        1.1313757E-17
   8.276000        1.1343612E-17
   8.437500        1.1372024E-17
   8.599000        1.1389165E-17
   8.760500        1.1391730E-17
   8.922000        1.1384688E-17
   9.083500        1.1378359E-17
   9.245000        1.1382474E-17
   9.406500        1.1400566E-17
   9.568000        1.1427875E-17
   9.729500        1.1453974E-17
   9.891000        1.1468662E-17
   10.05250        1.1467792E-17
   10.21400        1.1455735E-17
   10.37550        1.1443046E-17
   10.53700        1.1440601E-17
   10.69850        1.1453491E-17
   10.86000        1.1478119E-17
   11.02150        1.1504189E-17
   11.18300        1.1520514E-17
   11.34450        1.1521421E-17
   11.50600        1.1510119E-17
   11.66750        1.1497094E-17
   11.82900        1.1494355E-17
   11.99050        1.1508734E-17
   12.15200        1.1537978E-17
   12.31350        1.1571874E-17
   12.47500        1.1597778E-17
   12.63650        1.1607509E-17
   12.79800        1.1601732E-17
   12.95950        1.1589383E-17
   13.12100        1.1582436E-17
   13.28250        1.1588961E-17
   13.44400        1.1608384E-17
   13.60550        1.1631658E-17
   13.76700        1.1646279E-17
   13.92850        1.1643381E-17
   14.09000        1.1622965E-17
   14.25150        1.1594298E-17
   14.41300        1.1571248E-17
   14.57450        1.1565057E-17
   14.73600        1.1578533E-17
   14.89750        1.1604827E-17
   15.05900        1.1631451E-17
   15.22050        1.1647293E-17
   15.38200        1.1648709E-17
   15.54350        1.1641364E-17
   15.70500        1.1636783E-17
   15.86650        1.1645581E-17
   16.02800        1.1671125E-17
   16.18950        1.1707203E-17
   16.35100        1.1741029E-17
   16.51250        1.1759976E-17
   16.67400        1.1758364E-17
   16.83550        1.1740562E-17
   16.99700        1.1718674E-17
   17.15850        1.1706081E-17
   17.32000        1.1710367E-17
   17.48150        1.1729484E-17
   17.64300        1.1753246E-17
   17.80450        1.1769276E-17
   17.96600        1.1770099E-17
   18.12750        1.1757430E-17
   18.28900        1.1741289E-17
   18.45050        1.1734445E-17
   18.61200        1.1745276E-17
   18.77350        1.1773040E-17
   18.93500        1.1808169E-17
   19.09650        1.1837419E-17
   19.25800        1.1851029E-17
   19.41950        1.1847929E-17
   19.58100        1.1836137E-17
   19.74250        1.1828176E-17
   19.90400        1.1834044E-17
   20.06550        1.1855679E-17
   20.22700        1.1885906E-17
   20.38850        1.1912440E-17
   20.55000        1.1924650E-17
   20.71150        1.1919359E-17
   20.87300        1.1902504E-17
   21.03450        1.1885802E-17
   21.19600        1.1880331E-17
   21.35750        1.1890574E-17
   21.51900        1.1912181E-17
   21.68050        1.1934618E-17
   21.84200        1.1947171E-17
   22.00350        1.1944945E-17
   22.16500        1.1931567E-17
   22.32650        1.1917151E-17
   22.48800        1.1912672E-17
   22.64950        1.1923907E-17
   22.81100        1.1948230E-17
   22.97250        1.1976028E-17
   23.13400        1.1995907E-17
   23.29550        1.2000812E-17
   23.45700        1.1991721E-17
   23.61850        1.1976898E-17
   23.78000        1.1967227E-17
   23.94150        1.1970228E-17
   24.10300        1.1986084E-17
   24.26450        1.2007838E-17
   24.42600        1.2025552E-17
   24.58750        1.2032065E-17
   24.74900        1.2027080E-17
   24.91050        1.2017329E-17
   25.07200        1.2012747E-17
   25.23350        1.2020858E-17
   25.39500        1.2042520E-17
   25.55650        1.2071369E-17
   25.71800        1.2097240E-17
   25.87950        1.2111579E-17
   26.04100        1.2111861E-17
   26.20250        1.2102614E-17
   26.36400        1.2092588E-17
   26.52550        1.2089768E-17
   26.68700        1.2097038E-17
   26.84850        1.2110898E-17
   27.01000        1.2123850E-17
   27.17150        1.2128992E-17
   27.33300        1.2124195E-17
   27.49450        1.2113503E-17
   27.65600        1.2105021E-17
   27.81750        1.2106503E-17
   27.97900        1.2121126E-17
   28.14050        1.2145782E-17
   28.30200        1.2172806E-17
   28.46350        1.2194134E-17
   28.62500        1.2205539E-17
   28.78650        1.2208613E-17
   28.94800        1.2209439E-17
   29.10950        1.2214783E-17
   29.27100        1.2228010E-17
   29.43250        1.2247031E-17
   29.59400        1.2265447E-17
   29.75550        1.2276197E-17
   29.91700        1.2275636E-17
   30.07850        1.2265690E-17
   30.24000        1.2252866E-17
   30.40150        1.2244693E-17
   30.56300        1.2245612E-17
   30.72450        1.2254657E-17
   30.88600        1.2266246E-17
   31.04750        1.2273580E-17
   31.20900        1.2272697E-17
   31.37050        1.2264872E-17
   31.53200        1.2255961E-17
   31.69350        1.2253092E-17
   31.85500        1.2260593E-17
   32.01650        1.2277505E-17
   32.17800        1.2298071E-17
   32.33950        1.2314938E-17
   32.50100        1.2323223E-17
   32.66250        1.2323116E-17
   32.82400        1.2319581E-17
   32.98550        1.2319326E-17
   33.14700        1.2326803E-17
   33.30850        1.2341514E-17
   33.47000        1.2358180E-17
   33.63150        1.2369693E-17
   33.79300        1.2371173E-17
   33.95450        1.2362849E-17
   34.11600        1.2350121E-17
   34.27750        1.2340750E-17
   34.43900        1.2340734E-17
   34.60050        1.2351159E-17
   34.76200        1.2367765E-17
   34.92350        1.2383474E-17
   35.08500        1.2392452E-17
   35.24650        1.2393412E-17
   35.40800        1.2390300E-17
   35.56950        1.2389952E-17
   35.73100        1.2398053E-17
   35.89250        1.2415683E-17
   36.05400        1.2438445E-17
   36.21550        1.2458685E-17
   36.37700        1.2469648E-17
   36.53850        1.2469199E-17
   36.70000        1.2461058E-17
   36.86150        1.2452790E-17
   37.02300        1.2451675E-17
   37.18450        1.2460786E-17
   37.34600        1.2477436E-17
   37.50750        1.2494886E-17
   37.66900        1.2506298E-17
   37.83050        1.2508677E-17
   37.99200        1.2504561E-17
   38.15350        1.2500521E-17
   38.31500        1.2503307E-17
   38.47650        1.2515888E-17
   38.63800        1.2535598E-17
   38.79950        1.2555482E-17
   38.96100        1.2568050E-17
   39.12250        1.2569344E-17
   39.28400        1.2561044E-17
   39.44550        1.2549468E-17
   39.60700        1.2542070E-17
   39.76850        1.2543409E-17
   39.93000        1.2552834E-17
   40.09150        1.2565122E-17
   40.25300        1.2573675E-17
   40.41450        1.2574410E-17
   40.57600        1.2568181E-17
   40.73750        1.2560351E-17
   40.89900        1.2557803E-17
   41.06050        1.2565065E-17
   41.22200        1.2581737E-17
   41.38350        1.2602640E-17
   41.54500        1.2620601E-17
   41.70650        1.2630319E-17
   41.86800        1.2631143E-17
   42.02950        1.2627217E-17
   42.19100        1.2624950E-17
   42.35250        1.2629250E-17
   42.51400        1.2640676E-17
   42.67550        1.2655112E-17
   42.83700        1.2666120E-17
   42.99850        1.2668637E-17
   43.16000        1.2661896E-17
   43.32150        1.2649911E-17
   43.48300        1.2639277E-17
   43.64450        1.2635564E-17
   43.80600        1.2640361E-17
   43.96750        1.2650659E-17
   44.12900        1.2660845E-17
   44.29050        1.2666135E-17
   44.45200        1.2665430E-17
   44.61350        1.2661978E-17
   44.77500        1.2661501E-17
   44.93650        1.2668894E-17
   45.09800        1.2685393E-17
   45.25950        1.2707816E-17
   45.42100        1.2730256E-17
   45.58250        1.2747211E-17
   45.74400        1.2756377E-17
   45.90550        1.2759552E-17
   46.06700        1.2761244E-17
   46.22850        1.2765842E-17
   46.39000        1.2775004E-17
   46.55150        1.2786731E-17
   46.71300        1.2796606E-17
   46.87450        1.2800455E-17
   47.03600        1.2796874E-17
   47.19750        1.2788209E-17
   47.35900        1.2779423E-17
   47.52050        1.2775507E-17
   47.68200        1.2778901E-17
   47.84350        1.2788340E-17
   48.00500        1.2799749E-17
   48.16650        1.2808635E-17
   48.32800        1.2812616E-17
   48.48950        1.2812648E-17
   48.65100        1.2812268E-17
   48.81250        1.2815341E-17
   48.97400        1.2823644E-17
   49.13550        1.2835698E-17
   49.29700        1.2847545E-17
   49.45850        1.2855003E-17
   49.62000        1.2856074E-17
   49.78150        1.2852124E-17
   49.94300        1.2847119E-17
   50.10450        1.2845402E-17
   50.26600        1.2849282E-17
   50.42750        1.2857852E-17
   50.58900        1.2867678E-17
   50.75050        1.2874917E-17
   50.91200        1.2877592E-17
   51.07350        1.2876697E-17
   51.23500        1.2875513E-17
   51.39650        1.2877579E-17
   51.55800        1.2884527E-17
   51.71950        1.2895058E-17
   51.88100        1.2905641E-17
   52.04250        1.2912511E-17
   52.20400        1.2913810E-17
   52.36550        1.2910642E-17
   52.52700        1.2906449E-17
   52.68850        1.2905102E-17
   52.85000        1.2908774E-17
   53.01150        1.2916807E-17
   53.17300        1.2926184E-17
   53.33450        1.2933327E-17
   53.49600        1.2936176E-17
   53.65750        1.2935399E-17
   53.81900        1.2934019E-17
   53.98050        1.2935680E-17
   54.14200        1.2942545E-17
   54.30350        1.2954005E-17
   54.46500        1.2966949E-17
   54.62650        1.2977462E-17
   54.78800        1.2982991E-17
   54.94950        1.2983754E-17
   55.11100        1.2982584E-17
   55.27250        1.2983291E-17
   55.43400        1.2988447E-17
   55.59550        1.2997874E-17
   55.75700        1.3008700E-17
   55.91850        1.3016957E-17
   56.08000        1.3019803E-17
   56.24150        1.3017132E-17
   56.40300        1.3011668E-17
   56.56450        1.3007503E-17
   56.72600        1.3007923E-17
   56.88750        1.3013743E-17
   57.04900        1.3023051E-17
   57.21050        1.3032475E-17
   57.37200        1.3039201E-17
   57.53350        1.3042612E-17
   57.69500        1.3044625E-17
   57.85650        1.3048579E-17
   58.01800        1.3057311E-17
   58.17950        1.3071493E-17
   58.34100        1.3089102E-17
   58.50250        1.3106318E-17
   58.66400        1.3119333E-17
   58.82550        1.3126103E-17
   58.98700        1.3127145E-17
   59.14850        1.3125010E-17
   59.31000        1.3122762E-17
   59.47150        1.3122318E-17
   59.63300        1.3123517E-17
   59.79450        1.3124392E-17
   59.95600        1.3122453E-17
   60.11750        1.3116285E-17
   60.27900        1.3106562E-17
   60.44050        1.3095946E-17
   60.60200        1.3087898E-17
   60.76350        1.3085041E-17
   60.92500        1.3087929E-17
   61.08650        1.3094862E-17
   61.24800        1.3102834E-17
   61.40950        1.3109089E-17
   61.57100        1.3112481E-17
   61.73250        1.3113905E-17
   61.89400        1.3115622E-17
   62.05550        1.3119876E-17
   62.21700        1.3127567E-17
   62.37850        1.3137722E-17
   62.54000        1.3148016E-17
   62.70150        1.3156030E-17
   62.86300        1.3160540E-17
   63.02450        1.3162157E-17
   63.18600        1.3162971E-17
   63.34750        1.3165443E-17
   63.50900        1.3171136E-17
   63.67050        1.3179954E-17
   63.83200        1.3190273E-17
   63.99350        1.3199817E-17
   64.15500        1.3206836E-17
   64.31650        1.3210940E-17
   64.47800        1.3213205E-17
   64.63950        1.3215532E-17
   64.80100        1.3219612E-17
   64.96250        1.3226022E-17
   65.12400        1.3233920E-17
   65.28550        1.3241476E-17
   65.44700        1.3246809E-17
   65.60850        1.3248963E-17
   65.77000        1.3248386E-17
   65.93150        1.3246702E-17
   66.09300        1.3245852E-17
   66.25450        1.3247083E-17
   66.41600        1.3250308E-17
   66.57750        1.3254199E-17
   66.73900        1.3256968E-17
   66.90050        1.3257428E-17
   67.06200        1.3255724E-17
   67.22350        1.3253348E-17
   67.38500        1.3252411E-17
   67.54650        1.3254578E-17
   67.70800        1.3260245E-17
   67.86950        1.3268390E-17
   68.03100        1.3277140E-17
   68.19250        1.3284749E-17
   68.35400        1.3290419E-17
   68.51550        1.3294547E-17
   68.67700        1.3298289E-17
   68.83850        1.3302752E-17
   69.00000        1.3308244E-17
   69.16150        1.3314033E-17
   69.32300        1.3318696E-17
   69.48450        1.3320894E-17
   69.64600        1.3320148E-17
   69.80750        1.3317208E-17
   69.96900        1.3313829E-17
   70.13050        1.3312057E-17
   70.29200        1.3313369E-17
   70.45350        1.3318119E-17
   70.61500        1.3325523E-17
   70.77650        1.3334199E-17
   70.93800        1.3342945E-17
   71.09950        1.3351318E-17
   71.26100        1.3359716E-17
   71.42250        1.3368910E-17
   71.58400        1.3379306E-17
   71.74550        1.3390406E-17
   71.90700        1.3400803E-17
   72.06850        1.3408763E-17
   72.23000        1.3413048E-17
   72.39150        1.3413533E-17
   72.55300        1.3411238E-17
   72.71450        1.3407766E-17
   72.87600        1.3404496E-17
   73.03750        1.3401985E-17
   73.19900        1.3399936E-17
   73.36050        1.3397686E-17
   73.52200        1.3394876E-17
   73.68350        1.3391853E-17
   73.84500        1.3389562E-17
   74.00650        1.3388999E-17
   74.16800        1.3390623E-17
   74.32950        1.3394077E-17
   74.49100        1.3398410E-17
   74.65250        1.3402643E-17
   74.81400        1.3406306E-17
   74.97550        1.3409641E-17
   75.13700        1.3413331E-17
   75.29850        1.3417971E-17
   75.46000        1.3423595E-17
   75.62150        1.3429580E-17
   75.78300        1.3434966E-17
   75.94450        1.3439005E-17
   76.10600        1.3441601E-17
   76.26750        1.3443374E-17
   76.42900        1.3445296E-17
   76.59050        1.3448105E-17
   76.75200        1.3451838E-17
   76.91350        1.3455770E-17
   77.07500        1.3458843E-17
   77.23650        1.3460344E-17
   77.39800        1.3460459E-17
   77.55950        1.3460322E-17
   77.72100        1.3461497E-17
   77.88250        1.3465119E-17
   78.04400        1.3471176E-17
   78.20550        1.3478380E-17
   78.36700        1.3484741E-17
   78.52850        1.3488612E-17
   78.69000        1.3489568E-17
   78.85150        1.3488644E-17
   79.01300        1.3487716E-17
   79.17450        1.3488397E-17
   79.33600        1.3491073E-17
   79.49750        1.3494684E-17
   79.65900        1.3497434E-17
   79.82050        1.3498018E-17
   79.98200        1.3496664E-17
   80.14350        1.3495328E-17
   80.30500        1.3496874E-17
   80.46650        1.3503632E-17
   80.62800        1.3516152E-17
   80.78950        1.3532844E-17
   80.95100        1.3550716E-17
   81.11250        1.3566808E-17
   81.27400        1.3579536E-17
   81.43550        1.3589220E-17
   81.59700        1.3597538E-17
   81.75850        1.3606234E-17
   81.92000        1.3615843E-17
   82.08150        1.3625166E-17
   82.24300        1.3631807E-17
   82.40450        1.3633490E-17
   82.56600        1.3629424E-17
   82.72750        1.3620969E-17
   82.88900        1.3611201E-17
   83.05050        1.3603591E-17
   83.21200        1.3600460E-17
   83.37350        1.3602027E-17
   83.53500        1.3606554E-17
   83.69650        1.3611482E-17
   83.85800        1.3614940E-17
   84.01950        1.3616788E-17
   84.18100        1.3618616E-17
   84.34250        1.3622701E-17
   84.50400        1.3630548E-17
   84.66550        1.3641796E-17
   84.82700        1.3654163E-17
   84.98850        1.3664460E-17
   85.15000        1.3670126E-17
   85.31150        1.3670433E-17
   85.47300        1.3666712E-17
   85.63450        1.3661491E-17
   85.79600        1.3657061E-17
   85.95750        1.3654287E-17
   86.11900        1.3652281E-17
   86.28050        1.3649110E-17
   86.44200        1.3643066E-17
   86.60350        1.3633803E-17
   86.76500        1.3622700E-17
   86.92650        1.3612301E-17
   87.08800        1.3605153E-17
   87.24950        1.3602685E-17
   87.41100        1.3604696E-17
   87.57250        1.3609654E-17
   87.73400        1.3615605E-17
   87.89550        1.3621169E-17
   88.05700        1.3626115E-17
   88.21850        1.3631272E-17
   88.38000        1.3637843E-17
   88.54150        1.3646540E-17
   88.70300        1.3656998E-17
   88.86450        1.3667777E-17
   89.02600        1.3676957E-17
   89.18750        1.3683000E-17
   89.34900        1.3685467E-17
   89.51050        1.3685218E-17
   89.67200        1.3684024E-17
   89.83350        1.3683783E-17
   89.99500        1.3685737E-17
   90.15650        1.3690076E-17
   90.31800        1.3696064E-17
   90.47950        1.3702609E-17
   90.64100        1.3708898E-17
   90.80250        1.3714812E-17
   90.96400        1.3720895E-17
   91.12550        1.3727937E-17
   91.28700        1.3736402E-17
   91.44850        1.3746014E-17
   91.61000        1.3755697E-17
   91.77150        1.3763931E-17
   91.93300        1.3769344E-17
   92.09450        1.3771292E-17
   92.25600        1.3770162E-17
   92.41750        1.3767272E-17
   92.57900        1.3764398E-17
   92.74050        1.3763114E-17
   92.90200        1.3764237E-17
   93.06350        1.3767634E-17
   93.22500        1.3772479E-17
   93.38650        1.3777834E-17
   93.54800        1.3783240E-17
   93.70950        1.3789010E-17
   93.87100        1.3796012E-17
   94.03250        1.3805047E-17
   94.19400        1.3816150E-17
   94.35550        1.3828215E-17
   94.51700        1.3839223E-17
   94.67850        1.3847024E-17
   94.84000        1.3850264E-17
   95.00150        1.3848979E-17
   95.16300        1.3844514E-17
   95.32450        1.3838781E-17
   95.48600        1.3833280E-17
   95.64750        1.3828397E-17
   95.80900        1.3823407E-17
   95.97050        1.3817176E-17
   96.13200        1.3809125E-17
   96.29350        1.3799916E-17
   96.45500        1.3791390E-17
   96.61650        1.3785803E-17
   96.77800        1.3784741E-17
   96.93950        1.3788374E-17
   97.10100        1.3795424E-17
   97.26250        1.3803892E-17
   97.42400        1.3812130E-17
   97.58550        1.3819615E-17
   97.74700        1.3827011E-17
   97.90850        1.3835490E-17
   98.07000        1.3845716E-17
   98.23150        1.3857123E-17
   98.39300        1.3867939E-17
   98.55450        1.3875937E-17
   98.71600        1.3879532E-17
   98.87750        1.3878569E-17
   99.03900        1.3874387E-17
   99.20050        1.3869092E-17
   99.36200        1.3864479E-17
   99.52350        1.3861247E-17
   99.68500        1.3858942E-17
   99.84650        1.3856667E-17
   100.0080        1.3854071E-17
   100.1695        1.3851987E-17
   100.3310        1.3852277E-17
   100.4925        1.3856915E-17
   100.6540        1.3866843E-17
   100.8155        1.3881275E-17
   100.9770        1.3897921E-17
   101.1385        1.3914020E-17
   101.3000        1.3927604E-17
   101.4615        1.3938245E-17
   101.6230        1.3946844E-17
   101.7845        1.3954643E-17
   101.9460        1.3962079E-17
   102.1075        1.3968255E-17
   102.2690        1.3971380E-17
   102.4305        1.3969927E-17
   102.5920        1.3963821E-17
   102.7535        1.3954850E-17
   102.9150        1.3946007E-17
   103.0765        1.3940088E-17
   103.2380        1.3938316E-17
   103.3995        1.3939848E-17
   103.5610        1.3942407E-17
   103.7225        1.3943693E-17
   103.8840        1.3942746E-17
   104.0455        1.3940458E-17
   104.2070        1.3938931E-17
   104.3685        1.3940036E-17
   104.5300        1.3944063E-17
   104.6915        1.3949256E-17
   104.8530        1.3952629E-17
   105.0145        1.3951594E-17
   105.1760        1.3945517E-17
   105.3375        1.3936269E-17
   105.4990        1.3927397E-17
   105.6605        1.3922320E-17
   105.8220        1.3922538E-17
   105.9835        1.3926904E-17
   106.1450        1.3932385E-17
   106.3065        1.3935952E-17
   106.4680        1.3936490E-17
   106.6295        1.3935568E-17
   106.7910        1.3936607E-17
   106.9525        1.3942851E-17
   107.1140        1.3955343E-17
   107.2755        1.3972105E-17
   107.4370        1.3989030E-17
   107.5985        1.4002025E-17
   107.7600        1.4009174E-17
   107.9215        1.4011664E-17
   108.0830        1.4012931E-17
   108.2445        1.4016513E-17
   108.4060        1.4023878E-17
   108.5675        1.4033475E-17
   108.7290        1.4041578E-17
   108.8905        1.4044427E-17
   109.0520        1.4040483E-17
   109.2135        1.4031496E-17
   109.3750        1.4021813E-17
   109.5365        1.4016238E-17
   109.6980        1.4017657E-17
   109.8595        1.4025719E-17
   110.0210        1.4037252E-17
   110.1825        1.4048217E-17
   110.3440        1.4056034E-17
   110.5055        1.4060992E-17
   110.6670        1.4065913E-17
   110.8285        1.4074270E-17
   110.9900        1.4087809E-17
   111.1515        1.4105095E-17
   111.3130        1.4121866E-17
   111.4745        1.4133062E-17
   111.6360        1.4135415E-17
   111.7975        1.4129108E-17
   111.9590        1.4117609E-17
   112.1205        1.4105721E-17
   112.2820        1.4097052E-17
   112.4435        1.4092309E-17
   112.6050        1.4089382E-17
   112.7665        1.4085081E-17
   112.9280        1.4077438E-17
   113.0895        1.4067182E-17
   113.2510        1.4057526E-17
   113.4125        1.4052411E-17
   113.5740        1.4054298E-17
   113.7355        1.4062747E-17
   113.8970        1.4074597E-17
   114.0585        1.4085587E-17
   114.2200        1.4092463E-17
   114.3815        1.4094426E-17
   114.5430        1.4093189E-17
   114.7045        1.4091683E-17
   114.8660        1.4092239E-17
   115.0275        1.4095257E-17
   115.1890        1.4099090E-17
   115.3505        1.4101122E-17
   115.5120        1.4099396E-17
   115.6735        1.4093849E-17
   115.8350        1.4086471E-17
   115.9965        1.4080321E-17
   116.1580        1.4077951E-17
   116.3195        1.4080131E-17
   116.4810        1.4085581E-17
   116.6425        1.4091816E-17
   116.8040        1.4096595E-17
   116.9655        1.4099130E-17
   117.1270        1.4100369E-17
   117.2885        1.4102261E-17
   117.4500        1.4106475E-17
   117.6115        1.4113324E-17
   117.7730        1.4121560E-17
   117.9345        1.4129052E-17
   118.0960        1.4133972E-17
   118.2575        1.4135711E-17
   118.4190        1.4135092E-17
   118.5805        1.4133785E-17
   118.7420        1.4133380E-17