  -27.90000        5.7328447E-18
  -27.73850        5.7343775E-18
  -27.57700        5.7368818E-18
  -27.41550        5.7395991E-18
  -27.25400        5.7419971E-18
  -27.09250        5.7440059E-18
  -26.93100        5.7459328E-18
  -26.76950        5.7481476E-18
  -26.60800        5.7507751E-18
  -26.44650        5.7536053E-18
  -26.28500        5.7562643E-18
  -26.12350        5.7584865E-18
  -25.96200        5.7602848E-18
  -25.80050        5.7619032E-18
  -25.63900        5.7636129E-18
  -25.47750        5.7655233E-18
  -25.31600        5.7675449E-18
  -25.15450        5.7695124E-18
  -24.99300        5.7713314E-18
  -24.83150        5.7730374E-18
  -24.67000        5.7747137E-18
  -24.50850        5.7763743E-18
  -24.34700        5.7779252E-18
  -24.18550        5.7792529E-18
  -24.02400        5.7803617E-18
  -23.86250        5.7814267E-18
  -23.70100        5.7826927E-18
  -23.53950        5.7842867E-18
  -23.37800        5.7860812E-18
  -23.21650        5.7877534E-18
  -23.05500        5.7890037E-18
  -22.89350        5.7897895E-18
  -22.73200        5.7903784E-18
  -22.57050        5.7911680E-18
  -22.40900        5.7923968E-18
  -22.24750        5.7939676E-18
  -22.08600        5.7955185E-18
  -21.92450        5.7967002E-18
  -21.76300        5.7974426E-18
  -21.60150        5.7980088E-18
  -21.44000        5.7987822E-18
  -21.27850        5.7999489E-18
  -21.11700        5.8013278E-18
  -20.95550        5.8024871E-18
  -20.79400        5.8030806E-18
  -20.63250        5.8031526E-18
  -20.47100        5.8031795E-18
  -20.30950        5.8037965E-18
  -20.14800        5.8054000E-18
  -19.98650        5.8078990E-18
  -19.82500        5.8107804E-18
  -19.66350        5.8134328E-18
  -19.50200        5.8154817E-18
  -19.34050        5.8169227E-18
  -19.17900        5.8179901E-18
  -19.01750        5.8189000E-18
  -18.85600        5.8196776E-18
  -18.69450        5.8201892E-18
  -18.53300        5.8203166E-18
  -18.37150        5.8201094E-18
  -18.21000        5.8197847E-18
  -18.04850        5.8195928E-18
  -17.88700        5.8196743E-18
  -17.72550        5.8200415E-18
  -17.56400        5.8206872E-18
  -17.40250        5.8216885E-18
  -17.24100        5.8231894E-18
  -17.07950        5.8252391E-18
  -16.91800        5.8276247E-18
  -16.75650        5.8298809E-18
  -16.59500        5.8315125E-18
  -16.43350        5.8323227E-18
  -16.27200        5.8325837E-18
  -16.11050        5.8329021E-18
  -15.94900        5.8338364E-18
  -15.78750        5.8355078E-18
  -15.62600        5.8375071E-18
  -15.46450        5.8391614E-18
  -15.30300        5.8399911E-18
  -15.14150        5.8400320E-18
  -14.98000        5.8397950E-18
  -14.81850        5.8399084E-18
  -14.65700        5.8406996E-18
  -14.49550        5.8420317E-18
  -14.33400        5.8434772E-18
  -14.17250        5.8446866E-18
  -14.01100        5.8456506E-18
  -13.84950        5.8466768E-18
  -13.68800        5.8481049E-18
  -13.52650        5.8500215E-18
  -13.36500        5.8521899E-18
  -13.20350        5.8542558E-18
  -13.04200        5.8560504E-18
  -12.88050        5.8577279E-18
  -12.71900        5.8596317E-18
  -12.55750        5.8619854E-18
  -12.39600        5.8646605E-18
  -12.23450        5.8672128E-18
  -12.07300        5.8691525E-18
  -11.91150        5.8702473E-18
  -11.75000        5.8706253E-18
  -11.58850        5.8706088E-18
  -11.42700        5.8704202E-18
  -11.26550        5.8699966E-18
  -11.10400        5.8690574E-18
  -10.94250        5.8673666E-18
  -10.78100        5.8649785E-18
  -10.61950        5.8622737E-18
  -10.45800        5.8597714E-18
  -10.29650        5.8578698E-18
  -10.13500        5.8567158E-18
  -9.973500        5.8562605E-18
  -9.812000        5.8564238E-18
  -9.650500        5.8571803E-18
  -9.489000        5.8585034E-18
  -9.327500        5.8602260E-18
  -9.166000        5.8620019E-18
  -9.004500        5.8634553E-18
  -8.843000        5.8644533E-18
  -8.681500        5.8652792E-18
  -8.520000        5.8665279E-18
  -8.358500        5.8687356E-18
  -8.197000        5.8719798E-18
  -8.035500        5.8757451E-18
  -7.874000        5.8791932E-18
  -7.712500        5.8816768E-18
  -7.551000        5.8831592E-18
  -7.389500        5.8842357E-18
  -7.228000        5.8857383E-18
  -7.066500        5.8881847E-18
  -6.905000        5.8914450E-18
  -6.743500        5.8948406E-18
  -6.582000        5.8975959E-18
  -6.420500        5.8993247E-18
  -6.259000        5.9002330E-18
  -6.097500        5.9009286E-18
  -5.936000        5.9020044E-18
  -5.774500        5.9036840E-18
  -5.613000        5.9057420E-18
  -5.451500        5.9076966E-18
  -5.290000        5.9090942E-18
  -5.128500        5.9097017E-18
  -4.967000        5.9095413E-18
  -4.805500        5.9088171E-18
  -4.644000        5.9078385E-18
  -4.482500        5.9069675E-18
  -4.321000        5.9065493E-18
  -4.159500        5.9067847E-18
  -3.998000        5.9075755E-18
  -3.836500        5.9084746E-18
  -3.675000        5.9088456E-18
  -3.513500        5.9082078E-18
  -3.352000        5.9065783E-18
  -3.190500        5.9045562E-18
  -3.029000        5.9030425E-18
  -2.867500        5.9027286E-18
  -2.706000        5.9036761E-18
  -2.544500        5.9052854E-18
  -2.383000        5.9066809E-18
  -2.221500        5.9072727E-18
  -2.060000        5.9071217E-18
  -1.898500        5.9068488E-18
  -1.737000        5.9071710E-18
  -1.575500        5.9083849E-18
  -1.414000        5.9101525E-18
  -1.252500        5.9117366E-18
  -1.091000        5.9125013E-18
 -0.9295000        5.9123330E-18
 -0.7680000        5.9116973E-18
 -0.6065000        5.9113267E-18
 -0.4450000        5.9117763E-18
 -0.2835000        5.9131444E-18
 -0.1220000        5.9151073E-18
  3.9500002E-02    5.9171852E-18
  0.2010000        5.9190129E-18
  0.3625000        5.9204526E-18
  0.5240000        5.9215159E-18
  0.6855000        5.9222393E-18
  0.8470000        5.9226401E-18
   1.008500        5.9227724E-18
   1.170000        5.9227956E-18
   1.331500        5.9229374E-18
   1.493000        5.9233502E-18
   1.654500        5.9239714E-18
   1.816000        5.9245351E-18
   1.977500        5.9247651E-18
   2.139000        5.9246166E-18
   2.300500        5.9243763E-18
   2.462000        5.9245161E-18
   2.623500        5.9253805E-18
   2.785000        5.9269451E-18
   2.946500        5.9288278E-18
   3.108000        5.9305686E-18
   3.269500        5.9319847E-18
   3.431000        5.9333264E-18
   3.592500        5.9351111E-18
   3.754000        5.9377403E-18
   3.915500        5.9411788E-18
   4.077000        5.9449297E-18
   4.238500        5.9483290E-18
   4.400000        5.9509350E-18
   4.561500        5.9527556E-18
   4.723000        5.9541490E-18
   4.884500        5.9555089E-18
   5.046000        5.9569705E-18
   5.207500        5.9583466E-18
   5.369000        5.9593139E-18
   5.530500        5.9596796E-18
   5.692000        5.9595083E-18
   5.853500        5.9590302E-18
   6.015000        5.9584305E-18
   6.176500        5.9577113E-18
   6.338000        5.9567501E-18
   6.499500        5.9554957E-18
   6.661000        5.9541226E-18
   6.822500        5.9529968E-18
   6.984000        5.9524670E-18
   7.145500        5.9526369E-18
   7.307000        5.9532970E-18
   7.468500        5.9540870E-18
   7.630000        5.9547492E-18
   7.791500        5.9552823E-18
   7.953000        5.9558832E-18
   8.114500        5.9567216E-18
   8.276000        5.9577407E-18
   8.437500        5.9586584E-18
   8.599000        5.9591667E-18
   8.760500        5.9591762E-18
   8.922000        5.9589124E-18
   9.083500        5.9587775E-18
   9.245000        5.9590943E-18
   9.406500        5.9599199E-18
   9.568000        5.9610684E-18
   9.729500        5.9623021E-18
   9.891000        5.9635247E-18
   10.05250        5.9648130E-18
   10.21400        5.9662722E-18
   10.37550        5.9678496E-18
   10.53700        5.9692951E-18
   10.69850        5.9703250E-18
   10.86000        5.9708721E-18
   11.02150        5.9712059E-18
   11.18300        5.9717870E-18
   11.34450        5.9729409E-18
   11.50600        5.9745800E-18
   11.66750        5.9761967E-18
   11.82900        5.9771682E-18
   11.99050        5.9771674E-18
   12.15200        5.9763990E-18
   12.31350        5.9754795E-18
   12.47500        5.9750391E-18
   12.63650        5.9753182E-18
   12.79800        5.9760342E-18
   12.95950        5.9766012E-18
   13.12100        5.9765412E-18
   13.28250        5.9757951E-18
   13.44400        5.9747421E-18
   13.60550        5.9739373E-18
   13.76700        5.9737805E-18
   13.92850        5.9743269E-18
   14.09000        5.9753377E-18
   14.25150        5.9764813E-18
   14.41300        5.9775210E-18
   14.57450        5.9783788E-18
   14.73600        5.9790894E-18
   14.89750        5.9797329E-18
   15.05900        5.9804248E-18
   15.22050        5.9813314E-18
   15.38200        5.9826363E-18
   15.54350        5.9844164E-18
   15.70500        5.9865046E-18
   15.86650        5.9884795E-18
   16.02800        5.9898551E-18
   16.18950        5.9904093E-18
   16.35100        5.9904147E-18
   16.51250        5.9905822E-18
   16.67400        5.9916865E-18
   16.83550        5.9940775E-18
   16.99700        5.9974044E-18
   17.15850        6.0007549E-18
   17.32000        6.0031574E-18
   17.48150        6.0041240E-18
   17.64300        6.0038924E-18
   17.80450        6.0032070E-18
   17.96600        6.0028026E-18
   18.12750        6.0029366E-18
   18.28900        6.0032740E-18
   18.45050        6.0031773E-18
   18.61200        6.0021760E-18
   18.77350        6.0002950E-18
   18.93500        5.9980446E-18
   19.09650        5.9961090E-18
   19.25800        5.9949679E-18
   19.41950        5.9946850E-18
   19.58100        5.9949543E-18
   19.74250        5.9953244E-18
   19.90400        5.9954266E-18
   20.06550        5.9950891E-18
   20.22700        5.9943446E-18
   20.38850        5.9933913E-18
   20.55000        5.9925459E-18
   20.71150        5.9921816E-18
   20.87300        5.9926034E-18
   21.03450        5.9938918E-18
   21.19600        5.9957967E-18
   21.35750        5.9978113E-18
   21.51900        5.9994215E-18
   21.68050        6.0004149E-18
   21.84200        6.0010374E-18
   22.00350        6.0018509E-18
   22.16500        6.0033597E-18
   22.32650        6.0056414E-18
   22.48800        6.0082446E-18
   22.64950        6.0104498E-18
   22.81100        6.0117340E-18
   22.97250        6.0121154E-18
   23.13400        6.0121427E-18
   23.29550        6.0125228E-18
   23.45700        6.0136428E-18
   23.61850        6.0153170E-18
   23.78000        6.0169180E-18
   23.94150        6.0178035E-18
   24.10300        6.0177249E-18
   24.26450        6.0169639E-18
   24.42600        6.0161152E-18
   24.58750        6.0157008E-18
   24.74900        6.0158828E-18
   24.91050        6.0164527E-18
   25.07200        6.0170466E-18
   25.23350        6.0174052E-18
   25.39500        6.0174966E-18
   25.55650        6.0174552E-18
   25.71800        6.0174478E-18
   25.87950        6.0175847E-18
   26.04100        6.0179371E-18
   26.20250        6.0186001E-18
   26.36400        6.0196886E-18
   26.52550        6.0212483E-18
   26.68700        6.0231438E-18
   26.84850        6.0250512E-18
   27.01000        6.0265952E-18
   27.17150        6.0275547E-18
   27.33300        6.0279795E-18
   27.49450        6.0281068E-18
   27.65600        6.0281383E-18
   27.81750        6.0280460E-18
   27.97900        6.0275741E-18
   28.14050        6.0264587E-18
   28.30200        6.0247088E-18
   28.46350        6.0227318E-18
   28.62500        6.0211800E-18
   28.78650        6.0206035E-18
   28.94800        6.0211461E-18
   29.10950        6.0224878E-18
   29.27100        6.0240752E-18
   29.43250        6.0254632E-18
   29.59400        6.0265327E-18
   29.75550        6.0274455E-18
   29.91700        6.0284067E-18
   30.07850        6.0294431E-18
   30.24000        6.0303696E-18
   30.40150        6.0309565E-18
   30.56300        6.0311422E-18
   30.72450        6.0311058E-18
   30.88600        6.0311331E-18
   31.04750        6.0313804E-18
   31.20900        6.0317361E-18
   31.37050        6.0318970E-18
   31.53200        6.0316075E-18
   31.69350        6.0308812E-18
   31.85500        6.0300164E-18
   32.01650        6.0294026E-18
   32.17800        6.0292554E-18
   32.33950        6.0294833E-18
   32.50100        6.0297856E-18
   32.66250        6.0298973E-18
   32.82400        6.0297910E-18
   32.98550        6.0296814E-18
   33.14700        6.0298476E-18
   33.30850        6.0304105E-18
   33.47000        6.0312414E-18
   33.63150        6.0320612E-18
   33.79300        6.0326357E-18
   33.95450        6.0329157E-18
   34.11600        6.0330170E-18
   34.27750        6.0330906E-18
   34.43900        6.0332039E-18
   34.60050        6.0333321E-18
   34.76200        6.0334508E-18
   34.92350        6.0336163E-18
   35.08500        6.0339409E-18
   35.24650        6.0344703E-18
   35.40800        6.0350833E-18
   35.56950        6.0355362E-18
   35.73100        6.0356698E-18
   35.89250        6.0356251E-18
   36.05400        6.0358861E-18
   36.21550        6.0370652E-18
   36.37700        6.0395269E-18
   36.53850        6.0431028E-18
   36.70000        6.0471084E-18
   36.86150        6.0506740E-18
   37.02300        6.0531861E-18
   37.18450        6.0545506E-18
   37.34600        6.0551168E-18
   37.50750        6.0553306E-18
   37.66900        6.0553720E-18
   37.83050        6.0550345E-18
   37.99200        6.0539207E-18
   38.15350        6.0517973E-18
   38.31500        6.0488567E-18
   38.47650        6.0456985E-18
   38.63800        6.0430561E-18
   38.79950        6.0414542E-18
   38.96100        6.0410084E-18
   39.12250        6.0414588E-18
   39.28400        6.0423757E-18
   39.44550        6.0433836E-18
   39.60700        6.0442857E-18
   39.76850        6.0450715E-18
   39.93000        6.0458660E-18
   40.09150        6.0468611E-18
   40.25300        6.0482574E-18
   40.41450        6.0501727E-18
   40.57600        6.0525376E-18
   40.73750        6.0550382E-18
   40.89900        6.0571827E-18
   41.06050        6.0585239E-18
   41.22200        6.0589193E-18
   41.38350        6.0586571E-18
   41.54500        6.0583279E-18
   41.70650        6.0584788E-18
   41.86800        6.0592622E-18
   42.02950        6.0603131E-18
   42.19100        6.0609773E-18
   42.35250        6.0607499E-18
   42.51400        6.0596406E-18
   42.67550        6.0582059E-18
   42.83700        6.0572112E-18
   42.99850        6.0571392E-18
   43.16000        6.0578804E-18
   43.32150        6.0588130E-18
   43.48300        6.0592328E-18
   43.64450        6.0588358E-18
   43.80600        6.0579350E-18
   43.96750        6.0572840E-18
   44.12900        6.0576165E-18
   44.29050        6.0592097E-18
   44.45200        6.0617255E-18
   44.61350        6.0643998E-18
   44.77500        6.0664260E-18
   44.93650        6.0673007E-18
   45.09800        6.0669558E-18
   45.25950        6.0656790E-18
   45.42100        6.0639200E-18
   45.58250        6.0621114E-18
   45.74400        6.0605633E-18
   45.90550        6.0594189E-18
   46.06700        6.0586509E-18
   46.22850        6.0581103E-18
   46.39000        6.0576277E-18
   46.55150        6.0571566E-18
   46.71300        6.0568646E-18
   46.87450        6.0570813E-18
   47.03600        6.0580843E-18
   47.19750        6.0598387E-18
   47.35900        6.0618827E-18
   47.52050        6.0634907E-18
   47.68200        6.0640722E-18
   47.84350        6.0635648E-18
   48.00500        6.0625482E-18
   48.16650        6.0619592E-18
   48.32800        6.0625523E-18
   48.48950        6.0644420E-18
   48.65100        6.0670294E-18
   48.81250        6.0693716E-18
   48.97400        6.0707554E-18
   49.13550        6.0711053E-18
   49.29700        6.0709730E-18
   49.45850        6.0711268E-18
   49.62000        6.0720355E-18
   49.78150        6.0735836E-18
   49.94300        6.0751751E-18
   50.10450        6.0761214E-18
   50.26600        6.0760312E-18
   50.42750        6.0749641E-18
   50.58900        6.0732978E-18
   50.75050        6.0714540E-18
   50.91200        6.0696913E-18
   51.07350        6.0680696E-18
   51.23500        6.0665542E-18
   51.39650        6.0651356E-18
   51.55800        6.0638807E-18
   51.71950        6.0629055E-18
   51.88100        6.0623422E-18
   52.04250        6.0623314E-18
   52.20400        6.0630246E-18
   52.36550        6.0645189E-18
   52.52700        6.0667399E-18
   52.68850        6.0693443E-18
   52.85000        6.0717634E-18
   53.01150        6.0734339E-18
   53.17300        6.0741059E-18
   53.33450        6.0740294E-18
   53.49600        6.0738508E-18
   53.65750        6.0742503E-18
   53.81900        6.0755374E-18
   53.98050        6.0774701E-18
   54.14200        6.0794313E-18
   54.30350        6.0808454E-18
   54.46500        6.0815373E-18
   54.62650        6.0817838E-18
   54.78800        6.0820349E-18
   54.94950        6.0825175E-18
   55.11100        6.0830358E-18
   55.27250        6.0831086E-18
   55.43400        6.0823488E-18
   55.59550        6.0807982E-18
   55.75700        6.0789631E-18
   55.91850        6.0775325E-18
   56.08000        6.0769837E-18
   56.24150        6.0773514E-18
   56.40300        6.0783022E-18
   56.56450        6.0794288E-18
   56.72600        6.0805174E-18
   56.88750        6.0816018E-18
   57.04900        6.0828000E-18
   57.21050        6.0841003E-18
   57.37200        6.0852857E-18
   57.53350        6.0860537E-18
   57.69500        6.0862117E-18
   57.85650        6.0857795E-18
   58.01800        6.0849197E-18
   58.17950        6.0837686E-18
   58.34100        6.0823281E-18
   58.50250        6.0805211E-18
   58.66400        6.0783576E-18
   58.82550        6.0760647E-18
   58.98700        6.0740381E-18
   59.14850        6.0726451E-18
   59.31000        6.0720260E-18
   59.47150        6.0720566E-18
   59.63300        6.0725091E-18
   59.79450        6.0732606E-18
   59.95600        6.0743793E-18
   60.11750        6.0759973E-18
   60.27900        6.0780855E-18
   60.44050        6.0803375E-18
   60.60200        6.0822909E-18
   60.76350        6.0836247E-18
   60.92500        6.0844002E-18
   61.08650        6.0850462E-18
   61.24800        6.0860653E-18
   61.40950        6.0876676E-18
   61.57100        6.0896139E-18
   61.73250        6.0913948E-18
   61.89400        6.0926145E-18
   62.05550        6.0932845E-18
   62.21700        6.0937904E-18
   62.37850        6.0945567E-18
   62.54000        6.0956581E-18
   62.70150        6.0966880E-18
   62.86300        6.0970011E-18
   63.02450        6.0961590E-18
   63.18600        6.0942581E-18
   63.34750        6.0919060E-18
   63.50900        6.0898612E-18
   63.67050        6.0886010E-18
   63.83200        6.0881180E-18
   63.99350        6.0880456E-18
   64.15500        6.0879910E-18
   64.31650        6.0878065E-18
   64.47800        6.0876225E-18
   64.63950        6.0876663E-18
   64.80100        6.0880472E-18
   64.96250        6.0886685E-18
   65.12400        6.0893066E-18
   65.28550        6.0897454E-18
   65.44700        6.0898406E-18
   65.60850        6.0894948E-18
   65.77000        6.0886126E-18
   65.93150        6.0871460E-18
   66.09300        6.0852146E-18
   66.25450        6.0831859E-18
   66.41600        6.0815828E-18
   66.57750        6.0808272E-18
   66.73900        6.0809748E-18
   66.90050        6.0816689E-18
   67.06200        6.0823815E-18
   67.22350        6.0828062E-18
   67.38500        6.0831094E-18
   67.54650        6.0838290E-18
   67.70800        6.0854759E-18
   67.86950        6.0881043E-18
   68.03100        6.0911876E-18
   68.19250        6.0939107E-18
   68.35400        6.0956846E-18
   68.51550        6.0965225E-18
   68.67700        6.0970081E-18
   68.83850        6.0978746E-18
   69.00000        6.0995099E-18
   69.16150        6.1017243E-18
   69.32300        6.1039204E-18
   69.48450        6.1055181E-18
   69.64600        6.1063044E-18
   69.80750        6.1064785E-18
   69.96900        6.1064082E-18
   70.13050        6.1063118E-18
   70.29200        6.1061228E-18
   70.45350        6.1055979E-18
   70.61500        6.1045540E-18
   70.77650        6.1030163E-18
   70.93800        6.1011820E-18
   71.09950        6.0992684E-18
   71.26100        6.0974047E-18
   71.42250        6.0956631E-18
   71.58400        6.0941816E-18
   71.74550        6.0932196E-18
   71.90700        6.0930525E-18
   72.06850        6.0937664E-18
   72.23000        6.0951217E-18
   72.39150        6.0966330E-18
   72.55300        6.0978411E-18
   72.71450        6.0985868E-18
   72.87600        6.0990736E-18
   73.03750        6.0996588E-18
   73.19900        6.1005331E-18
   73.36050        6.1015324E-18
   73.52200        6.1022408E-18
   73.68350        6.1023120E-18
   73.84500        6.1017569E-18
   74.00650        6.1009765E-18
   74.16800        6.1005087E-18
   74.32950        6.1006903E-18
   74.49100        6.1014691E-18
   74.65250        6.1025059E-18
   74.81400        6.1034481E-18
   74.97550        6.1041611E-18
   75.13700        6.1047311E-18
   75.29850        6.1052799E-18
   75.46000        6.1057745E-18
   75.62150        6.1060124E-18
   75.78300        6.1057965E-18
   75.94450        6.1051463E-18
   76.10600        6.1043340E-18
   76.26750        6.1037070E-18
   76.42900        6.1034241E-18
   76.59050        6.1033377E-18
   76.75200        6.1031317E-18
   76.91350        6.1026189E-18
   77.07500        6.1019530E-18
   77.23650        6.1015650E-18
   77.39800        6.1018487E-18
   77.55950        6.1028244E-18
   77.72100        6.1040486E-18
   77.88250        6.1048518E-18
   78.04400        6.1047546E-18
   78.20550        6.1037550E-18
   78.36700        6.1022925E-18
   78.52850        6.1009326E-18
   78.69000        6.1000070E-18
   78.85150        6.0994652E-18
   79.01300        6.0990169E-18
   79.17450        6.0984213E-18
   79.33600        6.0976996E-18
   79.49750        6.0971198E-18
   79.65900        6.0970035E-18
   79.82050        6.0975168E-18
   79.98200        6.0986021E-18
   80.14350        6.1000538E-18
   80.30500        6.1016444E-18
   80.46650        6.1031875E-18
   80.62800        6.1045160E-18
   80.78950        6.1054598E-18
   80.95100        6.1059057E-18
   81.11250        6.1059028E-18
   81.27400        6.1057204E-18
   81.43550        6.1057439E-18
   81.59700        6.1062353E-18
   81.75850        6.1071274E-18
   81.92000        6.1080220E-18
   82.08150        6.1084430E-18
   82.24300        6.1081759E-18
   82.40450        6.1074517E-18
   82.56600        6.1067998E-18
   82.72750        6.1066559E-18
   82.88900        6.1070008E-18
   83.05050        6.1073148E-18
   83.21200        6.1069086E-18
   83.37350        6.1054193E-18
   83.53500        6.1031168E-18
   83.69650        6.1007962E-18
   83.85800        6.0993184E-18
   84.01950        6.0991104E-18
   84.18100        6.0999582E-18
   84.34250        6.1012180E-18
   84.50400        6.1022764E-18
   84.66550        6.1029319E-18
   84.82700        6.1034502E-18
   84.98850        6.1042807E-18
   85.15000        6.1056728E-18
   85.31150        6.1074512E-18
   85.47300        6.1090986E-18
   85.63450        6.1100502E-18
   85.79600        6.1099936E-18
   85.95750        6.1089923E-18
   86.11900        6.1074132E-18
   86.28050        6.1057266E-18
   86.44200        6.1043224E-18
   86.60350        6.1034096E-18
   86.76500        6.1029969E-18
   86.92650        6.1029286E-18
   87.08800        6.1029667E-18
   87.24950        6.1029038E-18
   87.41100        6.1026978E-18
   87.57250        6.1025411E-18
   87.73400        6.1027917E-18
   87.89550        6.1037604E-18
   88.05700        6.1054627E-18
   88.21850        6.1075216E-18
   88.38000        6.1093289E-18
   88.54150        6.1103993E-18
   88.70300        6.1106872E-18
   88.86450        6.1106429E-18
   89.02600        6.1109221E-18
   89.18750        6.1119346E-18
   89.34900        6.1135335E-18
   89.51050        6.1150803E-18
   89.67200        6.1158550E-18
   89.83350        6.1155390E-18
   89.99500        6.1144235E-18
   90.15650        6.1131931E-18
   90.31800        6.1124317E-18
   90.47950        6.1122005E-18
   90.64100        6.1119933E-18
   90.80250        6.1110863E-18
   90.96400        6.1090460E-18
   91.12550        6.1060446E-18
   91.28700        6.1027719E-18
   91.44850        6.1000290E-18
   91.61000        6.0982915E-18
   91.77150        6.0975214E-18
   91.93300        6.0973303E-18
   92.09450        6.0973385E-18
   92.25600        6.0974556E-18
   92.41750        6.0979110E-18
   92.57900        6.0990413E-18
   92.74050        6.1010092E-18
   92.90200        6.1036437E-18
   93.06350        6.1064880E-18
   93.22500        6.1089968E-18
   93.38650        6.1107645E-18
   93.54800        6.1116678E-18
   93.70950        6.1118820E-18
   93.87100        6.1117799E-18
   94.03250        6.1117745E-18
   94.19400        6.1121323E-18
   94.35550        6.1128440E-18
   94.51700        6.1136092E-18
   94.67850        6.1139818E-18
   94.84000        6.1136315E-18
   95.00150        6.1125913E-18
   95.16300        6.1112976E-18
   95.32450        6.1103712E-18
   95.48600        6.1102227E-18
   95.64750        6.1107480E-18
   95.80900        6.1113435E-18
   95.97050        6.1112782E-18
   96.13200        6.1101962E-18
   96.29350        6.1084161E-18
   96.45500        6.1067858E-18
   96.61650        6.1061555E-18
   96.77800        6.1068135E-18
   96.93950        6.1082631E-18
   97.10100        6.1095213E-18
   97.26250        6.1097541E-18
   97.42400        6.1088136E-18
   97.58550        6.1073272E-18
   97.74700        6.1062750E-18
   97.90850        6.1063465E-18
   98.07000        6.1075042E-18
   98.23150        6.1090237E-18
   98.39300        6.1099684E-18
   98.55450        6.1097640E-18
   98.71600        6.1085241E-18
   98.87750        6.1069434E-18
   99.03900        6.1058738E-18
   99.20050        6.1058676E-18
   99.36200        6.1069425E-18
   99.52350        6.1086564E-18
   99.68500        6.1104039E-18
   99.84650        6.1117323E-18
   100.0080        6.1125372E-18
   100.1695        6.1130678E-18
   100.3310        6.1137593E-18
   100.4925        6.1149728E-18
   100.6540        6.1167550E-18
   100.8155        6.1187373E-18
   100.9770        6.1202469E-18
   101.1385        6.1206253E-18
   101.3000        6.1196017E-18
   101.4615        6.1175139E-18
   101.6230        6.1152073E-18
   101.7845        6.1136096E-18
   101.9460        6.1132142E-18
   102.1075        6.1137837E-18
   102.2690        6.1144926E-18
   102.4305        6.1144467E-18
   102.5920        6.1132539E-18
   102.7535        6.1112827E-18
   102.9150        6.1094154E-18
   103.0765        6.1084761E-18
   103.2380        6.1086970E-18
   103.3995        6.1095816E-18
   103.5610        6.1102488E-18
   103.7225        6.1100217E-18
   103.8840        6.1088579E-18
   104.0455        6.1073582E-18
   104.2070        6.1063693E-18
   104.3685        6.1064727E-18
   104.5300        6.1076812E-18
   104.6915        6.1095039E-18
   104.8530        6.1112819E-18
   105.0145        6.1125479E-18
   105.1760        6.1132051E-18
   105.3375        6.1134582E-18
   105.4990        6.1136075E-18
   105.6605        6.1138425E-18
   105.8220        6.1141493E-18
   105.9835        6.1143255E-18
   106.1450        6.1140753E-18
   106.3065        6.1131315E-18
   106.4680        6.1113890E-18
   106.6295        6.1090010E-18
   106.7910        6.1063854E-18
   106.9525        6.1040954E-18
   107.1140        6.1025899E-18
   107.2755        6.1020183E-18
   107.4370        6.1021804E-18
   107.5985        6.1026958E-18
   107.7600        6.1032934E-18
   107.9215        6.1040085E-18
   108.0830        6.1051356E-18
   108.2445        6.1069665E-18
   108.4060        6.1095014E-18
   108.5675        6.1123676E-18
   108.7290        6.1150212E-18
   108.8905        6.1170867E-18
   109.0520        6.1185752E-18
   109.2135        6.1198081E-18
   109.3750        6.1211022E-18
   109.5365        6.1224720E-18
   109.6980        6.1235821E-18
   109.8595        6.1239957E-18
   110.0210        6.1235093E-18
   110.1825        6.1223086E-18
   110.3440        6.1208276E-18
   110.5055        6.1194226E-18
   110.6670        6.1181314E-18
   110.8285        6.1167066E-18
   110.9900        6.1148847E-18
   111.1515        6.1126699E-18
   111.3130        6.1103944E-18
   111.4745        6.1085200E-18
   111.6360        6.1073441E-18
   111.7975        6.1068387E-18
   111.9590        6.1067423E-18
   112.1205        6.1067945E-18
   112.2820        6.1069194E-18
   112.4435        6.1072200E-18
   112.6050        6.1078313E-18
   112.7665        6.1087673E-18
   112.9280        6.1099088E-18
   113.0895        6.1110987E-18
   113.2510        6.1122394E-18
   113.4125        6.1132878E-18
   113.5740        6.1141804E-18
   113.7355        6.1147859E-18
   113.8970        6.1149840E-18
   114.0585        6.1148012E-18
   114.2200        6.1144765E-18
   114.3815        6.1143408E-18
   114.5430        6.1145757E-18
   114.7045        6.1150460E-18
   114.8660        6.1153744E-18
   115.0275        6.1152425E-18
   115.1890        6.1146767E-18
   115.3505        6.1140716E-18
   115.5120        6.1138987E-18
   115.6735        6.1143007E-18
   115.8350        6.1149199E-18
   115.9965        6.1151184E-18
   116.1580        6.1144628E-18
   116.3195        6.1130926E-18
   116.4810        6.1116748E-18
   116.6425        6.1109544E-18
   116.8040        6.1112290E-18
   116.9655        6.1121459E-18
   117.1270        6.1129834E-18
   117.2885        6.1131877E-18
   117.4500        6.1127638E-18
   117.6115        6.1122303E-18
   117.7730        6.1121935E-18
   117.9345        6.1128842E-18
   118.0960        6.1140013E-18
   118.2575        6.1149476E-18
   118.4190        6.1152482E-18
   118.5805        6.1148260E-18
   118.7420        6.1139649E-18