  -27.90000        9.4448094E-18
  -27.73850        9.4734175E-18
  -27.57700        9.5129038E-18
  -27.41550        9.5414804E-18
  -27.25400        9.5490995E-18
  -27.09250        9.5441629E-18
  -26.93100        9.5461895E-18
  -26.76950        9.5701480E-18
  -26.60800        9.6143955E-18
  -26.44650        9.6614265E-18
  -26.28500        9.6908097E-18
  -26.12350        9.6945014E-18
  -25.96200        9.6829109E-18
  -25.80050        9.6771264E-18
  -25.63900        9.6931952E-18
  -25.47750        9.7302935E-18
  -25.31600        9.7716715E-18
  -25.15450        9.7975557E-18
  -24.99300        9.8001745E-18
  -24.83150        9.7895270E-18
  -24.67000        9.7856037E-18
  -24.50850        9.8030506E-18
  -24.34700        9.8399851E-18
  -24.18550        9.8794689E-18
  -24.02400        9.9024637E-18
  -23.86250        9.9023793E-18
  -23.70100        9.8900948E-18
  -23.53950        9.8856454E-18
  -23.37800        9.9029120E-18
  -23.21650        9.9390217E-18
  -23.05500        9.9765228E-18
  -22.89350        9.9966804E-18
  -22.73200        9.9937257E-18
  -22.57050        9.9792037E-18
  -22.40900        9.9731214E-18
  -22.24750        9.9886807E-18
  -22.08600        1.0022273E-17
  -21.92450        1.0056392E-17
  -21.76300        1.0073234E-17
  -21.60150        1.0068557E-17
  -21.44000        1.0055141E-17
  -21.27850        1.0053119E-17
  -21.11700        1.0074495E-17
  -20.95550        1.0113700E-17
  -20.79400        1.0151468E-17
  -20.63250        1.0169211E-17
  -20.47100        1.0162982E-17
  -20.30950        1.0146375E-17
  -20.14800        1.0140119E-17
  -19.98650        1.0156262E-17
  -19.82500        1.0189040E-17
  -19.66350        1.0219473E-17
  -19.50200        1.0230171E-17
  -19.34050        1.0219055E-17
  -19.17900        1.0201396E-17
  -19.01750        1.0198494E-17
  -18.85600        1.0221545E-17
  -18.69450        1.0262955E-17
  -18.53300        1.0301769E-17
  -18.37150        1.0319170E-17
  -18.21000        1.0312323E-17
  -18.04850        1.0296120E-17
  -17.88700        1.0291561E-17
  -17.72550        1.0309612E-17
  -17.56400        1.0342846E-17
  -17.40250        1.0371194E-17
  -17.24100        1.0377464E-17
  -17.07950        1.0360804E-17
  -16.91800        1.0337873E-17
  -16.75650        1.0330734E-17
  -16.59500        1.0350605E-17
  -16.43350        1.0389690E-17
  -16.27200        1.0427255E-17
  -16.11050        1.0445323E-17
  -15.94900        1.0442079E-17
  -15.78750        1.0432867E-17
  -15.62600        1.0438090E-17
  -15.46450        1.0467277E-17
  -15.30300        1.0511470E-17
  -15.14150        1.0549737E-17
  -14.98000        1.0564829E-17
  -14.81850        1.0556042E-17
  -14.65700        1.0539546E-17
  -14.49550        1.0535952E-17
  -14.33400        1.0554662E-17
  -14.17250        1.0586899E-17
  -14.01100        1.0612658E-17
  -13.84950        1.0616211E-17
  -13.68800        1.0598271E-17
  -13.52650        1.0575579E-17
  -13.36500        1.0568291E-17
  -13.20350        1.0584841E-17
  -13.04200        1.0615837E-17
  -12.88050        1.0641564E-17
  -12.71900        1.0647292E-17
  -12.55750        1.0634628E-17
  -12.39600        1.0620212E-17
  -12.23450        1.0622811E-17
  -12.07300        1.0648690E-17
  -11.91150        1.0686541E-17
  -11.75000        1.0715839E-17
  -11.58850        1.0722274E-17
  -11.42700        1.0708453E-17
  -11.26550        1.0691711E-17
  -11.10400        1.0690742E-17
  -10.94250        1.0711325E-17
  -10.78100        1.0742088E-17
  -10.61950        1.0763556E-17
  -10.45800        1.0763477E-17
  -10.29650        1.0746630E-17
  -10.13500        1.0731534E-17
  -9.973500        1.0736505E-17
  -9.812000        1.0765709E-17
  -9.650500        1.0805853E-17
  -9.489000        1.0836095E-17
  -9.327500        1.0843624E-17
  -9.166000        1.0833106E-17
  -9.004500        1.0822811E-17
  -8.843000        1.0830416E-17
  -8.681500        1.0859330E-17
  -8.520000        1.0895962E-17
  -8.358500        1.0920074E-17
  -8.197000        1.0920319E-17
  -8.035500        1.0903173E-17
  -7.874000        1.0888343E-17
  -7.712500        1.0894107E-17
  -7.551000        1.0923612E-17
  -7.389500        1.0962531E-17
  -7.228000        1.0989872E-17
  -7.066500        1.0993763E-17
  -6.905000        1.0980264E-17
  -6.743500        1.0968527E-17
  -6.582000        1.0976015E-17
  -6.420500        1.1005039E-17
  -6.259000        1.1040866E-17
  -6.097500        1.1062840E-17
  -5.936000        1.1060073E-17
  -5.774500        1.1039763E-17
  -5.613000        1.1021826E-17
  -5.451500        1.1023954E-17
  -5.290000        1.1048421E-17
  -5.128500        1.1080635E-17
  -4.967000        1.1100455E-17
  -4.805500        1.1097602E-17
  -4.644000        1.1079453E-17
  -4.482500        1.1065373E-17
  -4.321000        1.1071968E-17
  -4.159500        1.1100531E-17
  -3.998000        1.1136168E-17
  -3.836500        1.1159183E-17
  -3.675000        1.1159981E-17
  -3.513500        1.1146123E-17
  -3.352000        1.1136274E-17
  -3.190500        1.1145698E-17
  -3.029000        1.1174469E-17
  -2.867500        1.1207325E-17
  -2.706000        1.1225262E-17
  -2.544500        1.1219955E-17
  -2.383000        1.1200028E-17
  -2.221500        1.1184443E-17
  -2.060000        1.1188114E-17
  -1.898500        1.1210800E-17
  -1.737000        1.1237692E-17
  -1.575500        1.1251182E-17
  -1.414000        1.1244688E-17
  -1.252500        1.1227911E-17
  -1.091000        1.1219468E-17
 -0.9295000        1.1232584E-17
 -0.7680000        1.1264798E-17
 -0.6065000        1.1299628E-17
 -0.4450000        1.1318904E-17
 -0.2835000        1.1316370E-17
 -0.1220000        1.1302162E-17
  3.9500002E-02    1.1294769E-17
  0.2010000        1.1306681E-17
  0.3625000        1.1334721E-17
  0.5240000        1.1362503E-17
  0.6855000        1.1373140E-17
  0.8470000        1.1362475E-17
   1.008500        1.1342653E-17
   1.170000        1.1333215E-17
   1.331500        1.1346443E-17
   1.493000        1.1378106E-17
   1.654500        1.1410680E-17
   1.816000        1.1426656E-17
   1.977500        1.1421801E-17
   2.139000        1.1408269E-17
   2.300500        1.1405184E-17
   2.462000        1.1423842E-17
   2.623500        1.1458825E-17
   2.785000        1.1491875E-17
   2.946500        1.1505594E-17
   3.108000        1.1496600E-17
   3.269500        1.1478103E-17
   3.431000        1.1469926E-17
   3.592500        1.1483541E-17
   3.754000        1.1513451E-17
   3.915500        1.1541483E-17
   4.077000        1.1550671E-17
   4.238500        1.1538201E-17
   4.400000        1.1517588E-17
   4.561500        1.1508466E-17
   4.723000        1.1521781E-17
   4.884500        1.1551618E-17
   5.046000        1.1579806E-17
   5.207500        1.1589755E-17
   5.369000        1.1578973E-17
   5.530500        1.1560806E-17
   5.692000        1.1554160E-17
   5.853500        1.1569080E-17
   6.015000        1.1599153E-17
   6.176500        1.1626441E-17
   6.338000        1.1635129E-17
   6.499500        1.1623465E-17
   6.661000        1.1604973E-17
   6.822500        1.1598111E-17
   6.984000        1.1612312E-17
   7.145500        1.1641046E-17
   7.307000        1.1667097E-17
   7.468500        1.1675925E-17
   7.630000        1.1666837E-17
   7.791500        1.1653469E-17
   7.953000        1.1653248E-17
   8.114500        1.1673954E-17
   8.276000        1.1707690E-17
   8.437500        1.1736800E-17
   8.599000        1.1747219E-17
   8.760500        1.1739002E-17
   8.922000        1.1726023E-17
   9.083500        1.1725132E-17
   9.245000        1.1743142E-17
   9.406500        1.1771636E-17
   9.568000        1.1793572E-17
   9.729500        1.1796572E-17
   9.891000        1.1782672E-17
   10.05250        1.1767003E-17
   10.21400        1.1766358E-17
   10.37550        1.1786386E-17
   10.53700        1.1817241E-17
   10.69850        1.1841041E-17
   10.86000        1.1845456E-17
   11.02150        1.1833043E-17
   11.18300        1.1819161E-17
   11.34450        1.1820071E-17
   11.50600        1.1840328E-17
   11.66750        1.1869156E-17
   11.82900        1.1888627E-17
   11.99050        1.1887432E-17
   12.15200        1.1869708E-17
   12.31350        1.1852131E-17
   12.47500        1.1851434E-17
   12.63650        1.1871824E-17
   12.79800        1.1901860E-17
   12.95950        1.1923198E-17
   13.12100        1.1924560E-17
   13.28250        1.1910322E-17
   13.44400        1.1897181E-17
   13.60550        1.1901424E-17
   13.76700        1.1926465E-17
   13.92850        1.1960126E-17
   14.09000        1.1983725E-17
   14.25150        1.1986110E-17
   14.41300        1.1971993E-17
   14.57450        1.1958261E-17
   14.73600        1.1961078E-17
   14.89750        1.1983566E-17
   15.05900        1.2013400E-17
   15.22050        1.2032171E-17
   15.38200        1.2029364E-17
   15.54350        1.2010384E-17
   15.70500        1.1992533E-17
   15.86650        1.1992043E-17
   16.02800        1.2012003E-17
   16.18950        1.2040347E-17
   16.35100        1.2059328E-17
   16.51250        1.2059218E-17
   16.67400        1.2045760E-17
   16.83550        1.2035727E-17
   16.99700        1.2044033E-17
   17.15850        1.2072253E-17
   17.32000        1.2107300E-17
   17.48150        1.2131217E-17
   17.64300        1.2134597E-17
   17.80450        1.2123422E-17
   17.96600        1.2114164E-17
   18.12750        1.2120993E-17
   18.28900        1.2144900E-17
   18.45050        1.2173039E-17
   18.61200        1.2188735E-17
   18.77350        1.2184423E-17
   18.93500        1.2167572E-17
   19.09650        1.2155049E-17
   19.25800        1.2160248E-17
   19.41950        1.2182861E-17
   19.58100        1.2209155E-17
   19.74250        1.2222557E-17
   19.90400        1.2216390E-17
   20.06550        1.2198978E-17
   20.22700        1.2187194E-17
   20.38850        1.2193421E-17
   20.55000        1.2215969E-17
   20.71150        1.2240379E-17
   20.87300        1.2250598E-17
   21.03450        1.2241457E-17
   21.19600        1.2222789E-17
   21.35750        1.2211995E-17
   21.51900        1.2220720E-17
   21.68050        1.2245889E-17
   21.84200        1.2272009E-17
   22.00350        1.2283018E-17
   22.16500        1.2274612E-17
   22.32650        1.2257604E-17
   22.48800        1.2249692E-17
   22.64950        1.2261905E-17
   22.81100        1.2290099E-17
   22.97250        1.2318044E-17
   23.13400        1.2329784E-17
   23.29550        1.2321854E-17
   23.45700        1.2306013E-17
   23.61850        1.2300353E-17
   23.78000        1.2315514E-17
   23.94150        1.2346513E-17
   24.10300        1.2376439E-17
   24.26450        1.2389252E-17
   24.42600        1.2381937E-17
   24.58750        1.2366773E-17
   24.74900        1.2361963E-17
   24.91050        1.2377748E-17
   25.07200        1.2408576E-17
   25.23350        1.2437299E-17
   25.39500        1.2448174E-17
   25.55650        1.2438765E-17
   25.71800        1.2421697E-17
   25.87950        1.2414942E-17
   26.04100        1.2428089E-17
   26.20250        1.2455061E-17
   26.36400        1.2478800E-17
   26.52550        1.2484302E-17
   26.68700        1.2470022E-17
   26.84850        1.2449015E-17
   27.01000        1.2439001E-17
   27.17150        1.2449028E-17
   27.33300        1.2472895E-17
   27.49450        1.2494290E-17
   27.65600        1.2499561E-17
   27.81750        1.2488296E-17
   27.97900        1.2473630E-17
   28.14050        1.2472132E-17
   28.30200        1.2491093E-17
   28.46350        1.2522964E-17
   28.62500        1.2551116E-17
   28.78650        1.2562418E-17
   28.94800        1.2556975E-17
   29.10950        1.2547600E-17
   29.27100        1.2549576E-17
   29.43250        1.2568645E-17
   29.59400        1.2596488E-17
   29.75550        1.2617086E-17
   29.91700        1.2619051E-17
   30.07850        1.2604381E-17
   30.24000        1.2586944E-17
   30.40150        1.2581862E-17
   30.56300        1.2593991E-17
   30.72450        1.2614332E-17
   30.88600        1.2627130E-17
   31.04750        1.2622189E-17
   31.20900        1.2602916E-17
   31.37050        1.2583909E-17
   31.53200        1.2579912E-17
   31.69350        1.2594633E-17
   31.85500        1.2618012E-17
   32.01650        1.2634046E-17
   32.17800        1.2633185E-17
   32.33950        1.2619766E-17
   32.50100        1.2608746E-17
   32.66250        1.2614227E-17
   32.82400        1.2638549E-17
   32.98550        1.2670288E-17
   33.14700        1.2692746E-17
   33.30850        1.2696460E-17
   33.47000        1.2686232E-17
   33.63150        1.2677334E-17
   33.79300        1.2683801E-17
   33.95450        1.2707699E-17
   34.11600        1.2737523E-17
   34.27750        1.2756925E-17
   34.43900        1.2757145E-17
   34.60050        1.2743698E-17
   34.76200        1.2732275E-17
   34.92350        1.2736930E-17
   35.08500        1.2759512E-17
   35.24650        1.2788308E-17
   35.40800        1.2806915E-17
   35.56950        1.2806610E-17
   35.73100        1.2792873E-17
   35.89250        1.2781133E-17
   36.05400        1.2785030E-17
   36.21550        1.2806074E-17
   36.37700        1.2832557E-17
   36.53850        1.2848457E-17
   36.70000        1.2845542E-17
   36.86150        1.2829489E-17
   37.02300        1.2815412E-17
   37.18450        1.2816289E-17
   37.34600        1.2833153E-17
   37.50750        1.2854444E-17
   37.66900        1.2864936E-17
   37.83050        1.2857375E-17
   37.99200        1.2837966E-17
   38.15350        1.2821639E-17
   38.31500        1.2820787E-17
   38.47650        1.2836079E-17
   38.63800        1.2856284E-17
   38.79950        1.2867110E-17
   38.96100        1.2862233E-17
   39.12250        1.2848131E-17
   39.28400        1.2839085E-17
   39.44550        1.2846236E-17
   39.60700        1.2869045E-17
   39.76850        1.2895664E-17
   39.93000        1.2911887E-17
   40.09150        1.2911866E-17
   40.25300        1.2902395E-17
   40.41450        1.2897524E-17
   40.57600        1.2907622E-17
   40.73750        1.2931267E-17
   40.89900        1.2956201E-17
   41.06050        1.2968644E-17
   41.22200        1.2963852E-17
   41.38350        1.2949810E-17
   41.54500        1.2941175E-17
   41.70650        1.2948057E-17
   41.86800        1.2968258E-17
   42.02950        1.2988943E-17
   42.19100        1.2996526E-17
   42.35250        1.2987229E-17
   42.51400        1.2970179E-17
   42.67550        1.2960644E-17
   42.83700        1.2968483E-17
   42.99850        1.2990661E-17
   43.16000        1.3013568E-17
   43.32150        1.3023439E-17
   43.48300        1.3016948E-17
   43.64450        1.3003867E-17
   43.80600        1.2999709E-17
   43.96750        1.3013894E-17
   44.12900        1.3042412E-17
   44.29050        1.3070626E-17
   44.45200        1.3084141E-17
   44.61350        1.3079565E-17
   44.77500        1.3066962E-17
   44.93650        1.3062122E-17
   45.09800        1.3074447E-17
   45.25950        1.3099666E-17
   45.42100        1.3122924E-17
   45.58250        1.3129984E-17
   45.74400        1.3118063E-17
   45.90550        1.3098091E-17
   46.06700        1.3086615E-17
   46.22850        1.3093436E-17
   46.39000        1.3114351E-17
   46.55150        1.3134500E-17
   46.71300        1.3139781E-17
   46.87450        1.3127675E-17
   47.03600        1.3109246E-17
   47.19750        1.3100805E-17
   47.35900        1.3111551E-17
   47.52050        1.3136604E-17
   47.68200        1.3160707E-17
   47.84350        1.3169763E-17
   48.00500        1.3161421E-17
   48.16650        1.3146664E-17
   48.32800        1.3141227E-17
   48.48950        1.3153448E-17
   48.65100        1.3177796E-17
   48.81250        1.3199039E-17
   48.97400        1.3203823E-17
   49.13550        1.3190828E-17
   49.29700        1.3171744E-17
   49.45850        1.3162367E-17
   49.62000        1.3170632E-17
   49.78150        1.3190750E-17
   49.94300        1.3207918E-17
   50.10450        1.3209949E-17
   50.26600        1.3196878E-17
   50.42750        1.3181111E-17
   50.58900        1.3177989E-17
   50.75050        1.3193984E-17
   50.91200        1.3221623E-17
   51.07350        1.3245106E-17
   51.23500        1.3252338E-17
   51.39650        1.3244115E-17
   51.55800        1.3233378E-17
   51.71950        1.3235053E-17
   51.88100        1.3254305E-17
   52.04250        1.3282308E-17
   52.20400        1.3302884E-17
   52.36550        1.3304947E-17
   52.52700        1.3291160E-17
   52.68850        1.3276052E-17
   52.85000        1.3274935E-17
   53.01150        1.3292116E-17
   53.17300        1.3317493E-17
   53.33450        1.3334257E-17
   53.49600        1.3331840E-17
   53.65750        1.3314163E-17
   53.81900        1.3296819E-17
   53.98050        1.3295226E-17
   54.14200        1.3312838E-17
   54.30350        1.3338440E-17
   54.46500        1.3354695E-17
   54.62650        1.3351445E-17
   54.78800        1.3333629E-17
   54.94950        1.3317671E-17
   55.11100        1.3319055E-17
   55.27250        1.3340498E-17
   55.43400        1.3369769E-17
   55.59550        1.3388890E-17
   55.75700        1.3387742E-17
   55.91850        1.3371747E-17
   56.08000        1.3357721E-17
   56.24150        1.3361027E-17
   56.40300        1.3383771E-17
   56.56450        1.3413084E-17
   56.72600        1.3430812E-17
   56.88750        1.3427269E-17
   57.04900        1.3408565E-17
   57.21050        1.3391902E-17
   57.37200        1.3392419E-17
   57.53350        1.3411628E-17
   57.69500        1.3436315E-17
   57.85650        1.3448730E-17
   58.01800        1.3440276E-17
   58.17950        1.3418195E-17
   58.34100        1.3400137E-17
   58.50250        1.3400793E-17
   58.66400        1.3420832E-17
   58.82550        1.3446610E-17
   58.98700        1.3460822E-17
   59.14850        1.3455845E-17
   59.31000        1.3439526E-17
   59.47150        1.3428967E-17
   59.63300        1.3437164E-17
   59.79450        1.3462798E-17
   59.95600        1.3491073E-17
   60.11750        1.3504925E-17
   60.27900        1.3497985E-17
   60.44050        1.3479318E-17
   60.60200        1.3466323E-17
   60.76350        1.3471280E-17
   60.92500        1.3491937E-17
   61.08650        1.3513411E-17
   61.24800        1.3519904E-17
   61.40950        1.3507192E-17
   61.57100        1.3486167E-17
   61.73250        1.3474674E-17
   61.89400        1.3483865E-17
   62.05550        1.3509611E-17
   62.21700        1.3535644E-17
   62.37850        1.3546052E-17
   62.54000        1.3537531E-17
   62.70150        1.3521894E-17
   62.86300        1.3516862E-17
   63.02450        1.3532198E-17
   63.18600        1.3561905E-17
   63.34750        1.3588595E-17
   63.50900        1.3596722E-17
   63.67050        1.3584548E-17
   63.83200        1.3565557E-17
   63.99350        1.3558159E-17
   64.15500        1.3571542E-17
   64.31650        1.3598559E-17
   64.47800        1.3621191E-17
   64.63950        1.3624418E-17
   64.80100        1.3607900E-17
   64.96250        1.3586413E-17
   65.12400        1.3578663E-17
   65.28550        1.3592994E-17
   65.44700        1.3620949E-17
   65.60850        1.3643672E-17
   65.77000        1.3646296E-17
   65.93150        1.3629297E-17
   66.09300        1.3608124E-17
   66.25450        1.3601341E-17
   66.41600        1.3616356E-17
   66.57750        1.3643690E-17
   66.73900        1.3664194E-17
   66.90050        1.3663737E-17
   67.06200        1.3644112E-17
   67.22350        1.3621788E-17
   67.38500        1.3615428E-17
   67.54650        1.3631738E-17
   67.70800        1.3660461E-17
   67.86950        1.3682350E-17
   68.03100        1.3683974E-17
   68.19250        1.3667985E-17
   68.35400        1.3650941E-17
   68.51550        1.3650417E-17
   68.67700        1.3671312E-17
   68.83850        1.3701950E-17
   69.00000        1.3722945E-17
   69.16150        1.3722016E-17
   69.32300        1.3703325E-17
   69.48450        1.3684203E-17
   69.64600        1.3681804E-17
   69.80750        1.3700029E-17
   69.96900        1.3726764E-17
   70.13050        1.3743507E-17
   70.29200        1.3739873E-17
   70.45350        1.3721737E-17
   70.61500        1.3706733E-17
   70.77650        1.3710602E-17
   70.93800        1.3734979E-17
   71.09950        1.3766037E-17
   71.26100        1.3785032E-17
   71.42250        1.3782616E-17
   71.58400        1.3765839E-17
   71.74550        1.3752476E-17
   71.90700        1.3757058E-17
   72.06850        1.3779457E-17
   72.23000        1.3804855E-17
   72.39150        1.3815169E-17
   72.55300        1.3803098E-17
   72.71450        1.3777931E-17
   72.87600        1.3758566E-17
   73.03750        1.3759067E-17
   73.19900        1.3777903E-17
   73.36050        1.3799253E-17
   73.52200        1.3805389E-17
   73.68350        1.3790615E-17
   73.84500        1.3765939E-17
   74.00650        1.3750773E-17
   74.16800        1.3758023E-17
   74.32950        1.3784033E-17
   74.49100        1.3811251E-17
   74.65250        1.3821606E-17
   74.81400        1.3810338E-17
   74.97550        1.3789589E-17
   75.13700        1.3778941E-17
   75.29850        1.3790185E-17
   75.46000        1.3818091E-17
   75.62150        1.3844319E-17
   75.78300        1.3851511E-17
   75.94450        1.3836735E-17
   76.10600        1.3813905E-17
   76.26750        1.3803289E-17
   76.42900        1.3816106E-17
   76.59050        1.3846071E-17
   76.75200        1.3874314E-17
   76.91350        1.3883899E-17
   77.07500        1.3872775E-17
   77.23650        1.3855227E-17
   77.39800        1.3850729E-17
   77.55950        1.3868782E-17
   77.72100        1.3901435E-17
   77.88250        1.3929225E-17
   78.04400        1.3936010E-17
   78.20550        1.3921271E-17
   78.36700        1.3900446E-17
   78.52850        1.3893082E-17
   78.69000        1.3907914E-17
   78.85150        1.3936377E-17
   79.01300        1.3959493E-17
   79.17450        1.3962741E-17
   79.33600        1.3947365E-17
   79.49750        1.3929417E-17
   79.65900        1.3927261E-17
   79.82050        1.3947316E-17
   79.98200        1.3979013E-17
   80.14350        1.4002892E-17
   80.30500        1.4005488E-17
   80.46650        1.3989505E-17
   80.62800        1.3971449E-17
   80.78950        1.3968617E-17
   80.95100        1.3985588E-17
   81.11250        1.4010704E-17
   81.27400        1.4025210E-17
   81.43550        1.4017932E-17
   81.59700        1.3994081E-17
   81.75850        1.3971354E-17
   81.92000        1.3966371E-17
   82.08150        1.3981953E-17
   82.24300        1.4005109E-17
   82.40450        1.4017282E-17
   82.56600        1.4008884E-17
   82.72750        1.3986858E-17
   82.88900        1.3969357E-17
   83.05050        1.3971635E-17
   83.21200        1.3994114E-17
   83.37350        1.4021873E-17
   83.53500        1.4036018E-17
   83.69650        1.4028168E-17
   83.85800        1.4006813E-17
   84.01950        1.3990632E-17
   84.18100        1.3993894E-17
   84.34250        1.4015300E-17
   84.50400        1.4038923E-17
   84.66550        1.4046567E-17
   84.82700        1.4032002E-17
   84.98850        1.4006036E-17
   85.15000        1.3988441E-17
   85.31150        1.3992971E-17
   85.47300        1.4016951E-17
   85.63450        1.4043528E-17
   85.79600        1.4054768E-17
   85.95750        1.4045504E-17
   86.11900        1.4027198E-17
   86.28050        1.4018921E-17
   86.44200        1.4032393E-17
   86.60350        1.4062711E-17
   86.76500        1.4091895E-17
   86.92650        1.4102549E-17
   87.08800        1.4091078E-17
   87.24950        1.4070337E-17
   87.41100        1.4059711E-17
   87.57250        1.4070309E-17
   87.73400        1.4096656E-17
   87.89550        1.4121239E-17
   88.05700        1.4128237E-17
   88.21850        1.4115840E-17
   88.38000        1.4097613E-17
   88.54150        1.4091933E-17
   88.70300        1.4107719E-17
   88.86450        1.4137460E-17
   89.02600        1.4162920E-17
   89.18750        1.4169060E-17
   89.34900        1.4155378E-17
   89.51050        1.4136032E-17
   89.67200        1.4128678E-17
   89.83350        1.4140800E-17
   89.99500        1.4164065E-17
   90.15650        1.4181031E-17
   90.31800        1.4178888E-17
   90.47950        1.4159560E-17
   90.64100        1.4138307E-17
   90.80250        1.4131985E-17
   90.96400        1.4146127E-17
   91.12550        1.4170845E-17
   91.28700        1.4188684E-17
   91.44850        1.4188278E-17
   91.61000        1.4173159E-17
   91.77150        1.4158899E-17
   91.93300        1.4160861E-17
   92.09450        1.4182137E-17
   92.25600        1.4211042E-17
   92.41750        1.4230071E-17
   92.57900        1.4229345E-17
   92.74050        1.4214063E-17
   92.90200        1.4200224E-17
   93.06350        1.4202000E-17
   93.22500        1.4220613E-17
   93.38650        1.4243382E-17
   93.54800        1.4253657E-17
   93.70950        1.4243905E-17
   93.87100        1.4221786E-17
   94.03250        1.4204473E-17
   94.19400        1.4205623E-17
   94.35550        1.4225038E-17
   94.51700        1.4249022E-17
   94.67850        1.4261069E-17
   94.84000        1.4254646E-17
   95.00150        1.4238134E-17
   95.16300        1.4228130E-17
   95.32450        1.4236334E-17
   95.48600        1.4260215E-17
   95.64750        1.4284694E-17
   95.80900        1.4293610E-17
   95.97050        1.4282081E-17
   96.13200        1.4260268E-17
   96.29350        1.4245614E-17
   96.45500        1.4249574E-17
   96.61650        1.4269084E-17
   96.77800        1.4289292E-17
   96.93950        1.4295330E-17
   97.10100        1.4283993E-17
   97.26250        1.4266235E-17
   97.42400        1.4258666E-17
   97.58550        1.4270659E-17
   97.74700        1.4297036E-17
   97.90850        1.4321995E-17
   98.07000        1.4331126E-17
   98.23150        1.4322230E-17
   98.39300        1.4306664E-17
   98.55450        1.4300300E-17
   98.71600        1.4311176E-17
   98.87750        1.4333397E-17
   99.03900        1.4351880E-17
   99.20050        1.4354159E-17
   99.36200        1.4340056E-17
   99.52350        1.4321772E-17
   99.68500        1.4314423E-17
   99.84650        1.4324414E-17
   100.0080        1.4344672E-17
   100.1695        1.4360324E-17
   100.3310        1.4360332E-17
   100.4925        1.4346015E-17
   100.6540        1.4329873E-17
   100.8155        1.4325734E-17
   100.9770        1.4337930E-17
   101.1385        1.4357973E-17
   101.3000        1.4371226E-17
   101.4615        1.4368306E-17
   101.6230        1.4352318E-17
   101.7845        1.4336287E-17
   101.9460        1.4332922E-17
   102.1075        1.4344730E-17
   102.2690        1.4362218E-17
   102.4305        1.4371535E-17
   102.5920        1.4365479E-17
   102.7535        1.4349302E-17
   102.9150        1.4336732E-17
   103.0765        1.4339396E-17
   103.2380        1.4357892E-17
   103.3995        1.4381412E-17
   103.5610        1.4396165E-17
   103.7225        1.4396003E-17
   103.8840        1.4386962E-17
   104.0455        1.4382279E-17
   104.2070        1.4391776E-17
   104.3685        1.4413933E-17
   104.5300        1.4436803E-17
   104.6915        1.4447090E-17
   104.8530        1.4440324E-17
   105.0145        1.4424323E-17
   105.1760        1.4413217E-17
   105.3375        1.4416732E-17
   105.4990        1.4432962E-17
   105.6605        1.4450174E-17
   105.8220        1.4456210E-17
   105.9835        1.4448129E-17
   106.1450        1.4434590E-17
   106.3065        1.4429191E-17
   106.4680        1.4439912E-17
   106.6295        1.4462853E-17
   106.7910        1.4485112E-17
   106.9525        1.4494540E-17
   107.1140        1.4488813E-17
   107.2755        1.4476865E-17
   107.4370        1.4471692E-17
   107.5985        1.4480182E-17
   107.7600        1.4497869E-17
   107.9215        1.4512614E-17
   108.0830        1.4514191E-17
   108.2445        1.4502304E-17
   108.4060        1.4486806E-17
   108.5675        1.4480094E-17
   108.7290        1.4487640E-17
   108.8905        1.4504016E-17
   109.0520        1.4517356E-17
   109.2135        1.4518653E-17
   109.3750        1.4508617E-17
   109.5365        1.4496865E-17
   109.6980        1.4494221E-17
   109.8595        1.4504256E-17
   110.0210        1.4520585E-17
   110.1825        1.4531954E-17
   110.3440        1.4531002E-17
   110.5055        1.4519875E-17
   110.6670        1.4508348E-17
   110.8285        1.4506066E-17
   110.9900        1.4515031E-17
   111.1515        1.4528152E-17
   111.3130        1.4534981E-17
   111.4745        1.4530013E-17
   111.6360        1.4517089E-17
   111.7975        1.4506420E-17
   111.9590        1.4506639E-17
   112.1205        1.4518140E-17
   112.2820        1.4532893E-17
   112.4435        1.4540859E-17
   112.6050        1.4537870E-17
   112.7665        1.4528794E-17
   112.9280        1.4523505E-17
   113.0895        1.4528877E-17
   113.2510        1.4543177E-17
   113.4125        1.4557269E-17
   113.5740        1.4561684E-17
   113.7355        1.4553998E-17
   113.8970        1.4540730E-17
   114.0585        1.4532356E-17
   114.2200        1.4535342E-17
   114.3815        1.4547414E-17
   114.5430        1.4559682E-17
   114.7045        1.4563841E-17
   114.8660        1.4558789E-17
   115.0275        1.4551515E-17
   115.1890        1.4551603E-17
   115.3505        1.4563658E-17
   115.5120        1.4583547E-17
   115.6735        1.4601333E-17
   115.8350        1.4608637E-17
   115.9965        1.4604749E-17
   116.1580        1.4596849E-17
   116.3195        1.4594239E-17
   116.4810        1.4601123E-17
   116.6425        1.4613519E-17
   116.8040        1.4622628E-17
   116.9655        1.4621923E-17
   117.1270        1.4612414E-17
   117.2885        1.4601956E-17
   117.4500        1.4599260E-17
   117.6115        1.4607277E-17
   117.7730        1.4621144E-17
   117.9345        1.4632145E-17
   118.0960        1.4634503E-17
   118.2575        1.4629654E-17
   118.4190        1.4624752E-17
   118.5805        1.4626787E-17
   118.7420        1.4637019E-17