  -27.90000        5.3315786E-18
  -27.73850        5.3321679E-18
  -27.57700        5.3330489E-18
  -27.41550        5.3338905E-18
  -27.25400        5.3345866E-18
  -27.09250        5.3352740E-18
  -26.93100        5.3361248E-18
  -26.76950        5.3371376E-18
  -26.60800        5.3381332E-18
  -26.44650        5.3389376E-18
  -26.28500        5.3395580E-18
  -26.12350        5.3401606E-18
  -25.96200        5.3408930E-18
  -25.80050        5.3417359E-18
  -25.63900        5.3425437E-18
  -25.47750        5.3432178E-18
  -25.31600        5.3438118E-18
  -25.15450        5.3444615E-18
  -24.99300        5.3452146E-18
  -24.83150        5.3459719E-18
  -24.67000        5.3465898E-18
  -24.50850        5.3470477E-18
  -24.34700        5.3474857E-18
  -24.18550        5.3480676E-18
  -24.02400        5.3488116E-18
  -23.86250        5.3495648E-18
  -23.70100        5.3501579E-18
  -23.53950        5.3505789E-18
  -23.37800        5.3509780E-18
  -23.21650        5.3515025E-18
  -23.05500        5.3521361E-18
  -22.89350        5.3527271E-18
  -22.73200        5.3531667E-18
  -22.57050        5.3535224E-18
  -22.40900        5.3539782E-18
  -22.24750        5.3546300E-18
  -22.08600        5.3553567E-18
  -21.92450        5.3559163E-18
  -21.76300        5.3561760E-18
  -21.60150        5.3562625E-18
  -21.44000        5.3564643E-18
  -21.27850        5.3569854E-18
  -21.11700        5.3577737E-18
  -20.95550        5.3586050E-18
  -20.79400        5.3593065E-18
  -20.63250        5.3598946E-18
  -20.47100        5.3605034E-18
  -20.30950        5.3611962E-18
  -20.14800        5.3618749E-18
  -19.98650        5.3623778E-18
  -19.82500        5.3626504E-18
  -19.66350        5.3628055E-18
  -19.50200        5.3630147E-18
  -19.34050        5.3633531E-18
  -19.17900        5.3637729E-18
  -19.01750        5.3642295E-18
  -18.85600        5.3648010E-18
  -18.69450        5.3656402E-18
  -18.53300        5.3667871E-18
  -18.37150        5.3680535E-18
  -18.21000        5.3691247E-18
  -18.04850        5.3697980E-18
  -17.88700        5.3701306E-18
  -17.72550        5.3703378E-18
  -17.56400        5.3705491E-18
  -17.40250        5.3706666E-18
  -17.24100        5.3704676E-18
  -17.07950        5.3698642E-18
  -16.91800        5.3690354E-18
  -16.75650        5.3682926E-18
  -16.59500        5.3678083E-18
  -16.43350        5.3674873E-18
  -16.27200        5.3671085E-18
  -16.11050        5.3665820E-18
  -15.94900        5.3660600E-18
  -15.78750        5.3657949E-18
  -15.62600        5.3658975E-18
  -15.46450        5.3662561E-18
  -15.30300        5.3666862E-18
  -15.14150        5.3671602E-18
  -14.98000        5.3678678E-18
  -14.81850        5.3690660E-18
  -14.65700        5.3708668E-18
  -14.49550        5.3731878E-18
  -14.33400        5.3758815E-18
  -14.17250        5.3788747E-18
  -14.01100        5.3821388E-18
  -13.84950        5.3855629E-18
  -13.68800        5.3888881E-18
  -13.52650        5.3918168E-18
  -13.36500        5.3941846E-18
  -13.20350        5.3960089E-18
  -13.04200        5.3973560E-18
  -12.88050        5.3981732E-18
  -12.71900        5.3982981E-18
  -12.55750        5.3976633E-18
  -12.39600        5.3964924E-18
  -12.23450        5.3952363E-18
  -12.07300        5.3942615E-18
  -11.91150        5.3935600E-18
  -11.75000        5.3927804E-18
  -11.58850        5.3915550E-18
  -11.42700        5.3898220E-18
  -11.26550        5.3878517E-18
  -11.10400        5.3859653E-18
  -10.94250        5.3842472E-18
  -10.78100        5.3825213E-18
  -10.61950        5.3806089E-18
  -10.45800        5.3785914E-18
  -10.29650        5.3768138E-18
  -10.13500        5.3756342E-18
  -9.973500        5.3751681E-18
  -9.812000        5.3752616E-18
  -9.650500        5.3756896E-18
  -9.489000        5.3763373E-18
  -9.327500        5.3772050E-18
  -9.166000        5.3782787E-18
  -9.004500        5.3794442E-18
  -8.843000        5.3805489E-18
  -8.681500        5.3815370E-18
  -8.520000        5.3825019E-18
  -8.358500        5.3835905E-18
  -8.197000        5.3848742E-18
  -8.035500        5.3863276E-18
  -7.874000        5.3879327E-18
  -7.712500        5.3897620E-18
  -7.551000        5.3919111E-18
  -7.389500        5.3943235E-18
  -7.228000        5.3967228E-18
  -7.066500        5.3987498E-18
  -6.905000        5.4002114E-18
  -6.743500        5.4011887E-18
  -6.582000        5.4018980E-18
  -6.420500        5.4024204E-18
  -6.259000        5.4025941E-18
  -6.097500        5.4021793E-18
  -5.936000        5.4011705E-18
  -5.774500        5.3999351E-18
  -5.613000        5.3990112E-18
  -5.451500        5.3987229E-18
  -5.290000        5.3989553E-18
  -5.128500        5.3992887E-18
  -4.967000        5.3993615E-18
  -4.805500        5.3991357E-18
  -4.644000        5.3988432E-18
  -4.482500        5.3987121E-18
  -4.321000        5.3987374E-18
  -4.159500        5.3987010E-18
  -3.998000        5.3984032E-18
  -3.836500        5.3978668E-18
  -3.675000        5.3973452E-18
  -3.513500        5.3971558E-18
  -3.352000        5.3974987E-18
  -3.190500        5.3983991E-18
  -3.029000        5.3997614E-18
  -2.867500        5.4014245E-18
  -2.706000        5.4031996E-18
  -2.544500        5.4049019E-18
  -2.383000        5.4064173E-18
  -2.221500        5.4077470E-18
  -2.060000        5.4089712E-18
  -1.898500        5.4101305E-18
  -1.737000        5.4111298E-18
  -1.575500        5.4117882E-18
  -1.414000        5.4120211E-18
  -1.252500        5.4119925E-18
  -1.091000        5.4120579E-18
 -0.9295000        5.4124967E-18
 -0.7680000        5.4132668E-18
 -0.6065000        5.4140175E-18
 -0.4450000        5.4143794E-18
 -0.2835000        5.4142722E-18
 -0.1220000        5.4139529E-18
  3.9500002E-02    5.4137610E-18
  0.2010000        5.4137929E-18
  0.3625000        5.4138107E-18
  0.5240000        5.4134777E-18
  0.6855000        5.4126989E-18
  0.8470000        5.4117522E-18
   1.008500        5.4110876E-18
   1.170000        5.4109883E-18
   1.331500        5.4113845E-18
   1.493000        5.4119690E-18
   1.654500        5.4124591E-18
   1.816000        5.4127808E-18
   1.977500        5.4130311E-18
   2.139000        5.4133206E-18
   2.300500        5.4136543E-18
   2.462000        5.4139364E-18
   2.623500        5.4140642E-18
   2.785000        5.4139935E-18
   2.946500        5.4137499E-18
   3.108000        5.4134277E-18
   3.269500        5.4132031E-18
   3.431000        5.4133144E-18
   3.592500        5.4139525E-18
   3.754000        5.4151201E-18
   3.915500        5.4165896E-18
   4.077000        5.4180442E-18
   4.238500        5.4193081E-18
   4.400000        5.4204579E-18
   4.561500        5.4216900E-18
   4.723000        5.4230457E-18
   4.884500        5.4242580E-18
   5.046000        5.4249032E-18
   5.207500        5.4247543E-18
   5.369000        5.4240098E-18
   5.530500        5.4231789E-18
   5.692000        5.4226933E-18
   5.853500        5.4226032E-18
   6.015000        5.4226172E-18
   6.176500        5.4224295E-18
   6.338000        5.4220279E-18
   6.499500        5.4217045E-18
   6.661000        5.4217723E-18
   6.822500        5.4222640E-18
   6.984000        5.4228728E-18
   7.145500        5.4231818E-18
   7.307000        5.4229585E-18
   7.468500        5.4222781E-18
   7.630000        5.4214240E-18
   7.791500        5.4206924E-18
   7.953000        5.4202569E-18
   8.114500        5.4201374E-18
   8.276000        5.4202465E-18
   8.437500        5.4204459E-18
   8.599000        5.4206250E-18
   8.760500        5.4207871E-18
   8.922000        5.4210717E-18
   9.083500        5.4216619E-18
   9.245000        5.4226028E-18
   9.406500        5.4236715E-18
   9.568000        5.4244668E-18
   9.729500        5.4247063E-18
   9.891000        5.4244929E-18
   10.05250        5.4243055E-18
   10.21400        5.4246616E-18
   10.37550        5.4257287E-18
   10.53700        5.4272064E-18
   10.69850        5.4285994E-18
   10.86000        5.4296371E-18
   11.02150        5.4304717E-18
   11.18300        5.4314813E-18
   11.34450        5.4328648E-18
   11.50600        5.4344021E-18
   11.66750        5.4355845E-18
   11.82900        5.4360056E-18
   11.99050        5.4356635E-18
   12.15200        5.4349323E-18
   12.31350        5.4342677E-18
   12.47500        5.4339165E-18
   12.63650        5.4338462E-18
   12.79800        5.4339016E-18
   12.95950        5.4340088E-18
   13.12100        5.4342449E-18
   13.28250        5.4347569E-18
   13.44400        5.4356106E-18
   13.60550        5.4366950E-18
   13.76700        5.4377385E-18
   13.92850        5.4384102E-18
   14.09000        5.4384677E-18
   14.25150        5.4378866E-18
   14.41300        5.4369126E-18
   14.57450        5.4359638E-18
   14.73600        5.4354232E-18
   14.89750        5.4354361E-18
   15.05900        5.4358798E-18
   15.22050        5.4365486E-18
   15.38200        5.4374118E-18
   15.54350        5.4386902E-18
   15.70500        5.4406605E-18
   15.86650        5.4433212E-18
   16.02800        5.4462155E-18
   16.18950        5.4486188E-18
   16.35100        5.4499820E-18
   16.51250        5.4502856E-18
   16.67400        5.4500031E-18
   16.83550        5.4497016E-18
   16.99700        5.4496044E-18
   17.15850        5.4494779E-18
   17.32000        5.4489158E-18
   17.48150        5.4477631E-18
   17.64300        5.4462957E-18
   17.80450        5.4450272E-18
   17.96600        5.4443055E-18
   18.12750        5.4440449E-18
   18.28900        5.4437989E-18
   18.45050        5.4430949E-18
   18.61200        5.4417578E-18
   18.77350        5.4399918E-18
   18.93500        5.4382121E-18
   19.09650        5.4367835E-18
   19.25800        5.4358492E-18
   19.41950        5.4353430E-18
   19.58100        5.4351226E-18
   19.74250        5.4351329E-18
   19.90400        5.4354824E-18
   20.06550        5.4363766E-18
   20.22700        5.4379432E-18
   20.38850        5.4400546E-18
   20.55000        5.4422851E-18
   20.71150        5.4440826E-18
   20.87300        5.4450690E-18
   21.03450        5.4452700E-18
   21.19600        5.4450802E-18
   21.35750        5.4449610E-18
   21.51900        5.4451199E-18
   21.68050        5.4454325E-18
   21.84200        5.4456774E-18
   22.00350        5.4458643E-18
   22.16500        5.4463234E-18
   22.32650        5.4474513E-18
   22.48800        5.4493145E-18
   22.64950        5.4514656E-18
   22.81100        5.4531721E-18
   22.97250        5.4538830E-18
   23.13400        5.4535596E-18
   23.29550        5.4526195E-18
   23.45700        5.4515533E-18
   23.61850        5.4505780E-18
   23.78000        5.4495966E-18
   23.94150        5.4484604E-18
   24.10300        5.4472573E-18
   24.26450        5.4463664E-18
   24.42600        5.4462345E-18
   24.58750        5.4470708E-18
   24.74900        5.4486925E-18
   24.91050        5.4506227E-18
   25.07200        5.4523498E-18
   25.23350        5.4535579E-18
   25.39500        5.4542135E-18
   25.55650        5.4544819E-18
   25.71800        5.4545729E-18
   25.87950        5.4545870E-18
   26.04100        5.4544654E-18
   26.20250        5.4540778E-18
   26.36400        5.4533937E-18
   26.52550        5.4526274E-18
   26.68700        5.4521890E-18
   26.84850        5.4524503E-18
   27.01000        5.4534587E-18
   27.17150        5.4548425E-18
   27.33300        5.4560126E-18
   27.49450        5.4565387E-18
   27.65600        5.4564101E-18
   27.81750        5.4559654E-18
   27.97900        5.4555519E-18
   28.14050        5.4552222E-18
   28.30200        5.4547346E-18
   28.46350        5.4538607E-18
   28.62500        5.4527006E-18
   28.78650        5.4517179E-18
   28.94800        5.4514383E-18
   29.10950        5.4520678E-18
   29.27100        5.4533391E-18
   29.43250        5.4547052E-18
   29.59400        5.4557024E-18
   29.75550        5.4561838E-18
   29.91700        5.4562823E-18
   30.07850        5.4561896E-18
   30.24000        5.4559857E-18
   30.40150        5.4556453E-18
   30.56300        5.4551747E-18
   30.72450        5.4547210E-18
   30.88600        5.4545671E-18
   31.04750        5.4550117E-18
   31.20900        5.4562314E-18
   31.37050        5.4581959E-18
   31.53200        5.4606721E-18
   31.69350        5.4633021E-18
   31.85500        5.4657179E-18
   32.01650        5.4676514E-18
   32.17800        5.4689956E-18
   32.33950        5.4697719E-18
   32.50100        5.4700197E-18
   32.66250        5.4697082E-18
   32.82400        5.4687648E-18
   32.98550        5.4672163E-18
   33.14700        5.4653138E-18
   33.30850        5.4635052E-18
   33.47000        5.4622318E-18
   33.63150        5.4616846E-18
   33.79300        5.4617135E-18
   33.95450        5.4619753E-18
   34.11600        5.4621908E-18
   34.27750        5.4623170E-18
   34.43900        5.4624807E-18
   34.60050        5.4627558E-18
   34.76200        5.4630085E-18
   34.92350        5.4629539E-18
   35.08500        5.4623844E-18
   35.24650        5.4613686E-18
   35.40800        5.4602763E-18
   35.56950        5.4595922E-18
   35.73100        5.4596733E-18
   35.89250        5.4606059E-18
   36.05400        5.4622272E-18
   36.21550        5.4642488E-18
   36.37700        5.4663734E-18
   36.53850        5.4683570E-18
   36.70000        5.4700387E-18
   36.86150        5.4713398E-18
   37.02300        5.4722398E-18
   37.18450        5.4727208E-18
   37.34600        5.4727316E-18
   37.50750        5.4722299E-18
   37.66900        5.4712857E-18
   37.83050        5.4701615E-18
   37.99200        5.4692549E-18
   38.15350        5.4689059E-18
   38.31500        5.4691730E-18
   38.47650        5.4697674E-18
   38.63800        5.4702095E-18
   38.79950        5.4701173E-18
   38.96100        5.4693976E-18
   39.12250        5.4682085E-18
   39.28400        5.4667626E-18
   39.44550        5.4651579E-18
   39.60700        5.4633700E-18
   39.76850        5.4613946E-18
   39.93000        5.4593809E-18
   40.09150        5.4576504E-18
   40.25300        5.4565755E-18
   40.41450        5.4564183E-18
   40.57600        5.4572418E-18
   40.73750        5.4589234E-18
   40.89900        5.4612230E-18
   41.06050        5.4638514E-18
   41.22200        5.4665314E-18
   41.38350        5.4690593E-18
   41.54500        5.4713357E-18
   41.70650        5.4733437E-18
   41.86800        5.4750874E-18
   42.02950        5.4765482E-18
   42.19100        5.4777224E-18
   42.35250        5.4787034E-18
   42.51400        5.4797283E-18
   42.67550        5.4810911E-18
   42.83700        5.4829493E-18
   42.99850        5.4851666E-18
   43.16000        5.4873371E-18
   43.32150        5.4890006E-18
   43.48300        5.4898823E-18
   43.64450        5.4899626E-18
   43.80600        5.4893360E-18
   43.96750        5.4880166E-18
   44.12900        5.4858895E-18
   44.29050        5.4828757E-18
   44.45200        5.4791641E-18
   44.61350        5.4752826E-18
   44.77500        5.4719081E-18
   44.93650        5.4695213E-18
   45.09800        5.4681771E-18
   45.25950        5.4675571E-18
   45.42100        5.4672560E-18
   45.58250        5.4670546E-18
   45.74400        5.4669934E-18
   45.90550        5.4672296E-18
   46.06700        5.4678189E-18
   46.22850        5.4686068E-18
   46.39000        5.4693062E-18
   46.55150        5.4696991E-18
   46.71300        5.4698104E-18
   46.87450        5.4699378E-18
   47.03600        5.4705139E-18
   47.19750        5.4718721E-18
   47.35900        5.4740414E-18
   47.52050        5.4767000E-18
   47.68200        5.4793337E-18
   47.84350        5.4815319E-18
   48.00500        5.4832140E-18
   48.16650        5.4846186E-18
   48.32800        5.4860277E-18
   48.48950        5.4874459E-18
   48.65100        5.4885100E-18
   48.81250        5.4887276E-18
   48.97400        5.4878959E-18
   49.13550        5.4863478E-18
   49.29700        5.4848047E-18
   49.45850        5.4839080E-18
   49.62000        5.4837955E-18
   49.78150        5.4840540E-18
   49.94300        5.4840792E-18
   50.10450        5.4835296E-18
   50.26600        5.4825134E-18
   50.42750        5.4813859E-18
   50.58900        5.4803681E-18
   50.75050        5.4793209E-18
   50.91200        5.4778692E-18
   51.07350        5.4757574E-18
   51.23500        5.4731377E-18
   51.39650        5.4705673E-18
   51.55800        5.4687214E-18
   51.71950        5.4680460E-18
   51.88100        5.4685804E-18
   52.04250        5.4700192E-18
   52.20400        5.4719536E-18
   52.36550        5.4741030E-18
   52.52700        5.4764084E-18
   52.68850        5.4789408E-18
   52.85000        5.4817048E-18
   53.01150        5.4844974E-18
   53.17300        5.4869475E-18
   53.33450        5.4887342E-18
   53.49600        5.4898377E-18
   53.65750        5.4906061E-18
   53.81900        5.4915474E-18
   53.98050        5.4929599E-18
   54.14200        5.4946862E-18
   54.30350        5.4962206E-18
   54.46500        5.4970987E-18
   54.62650        5.4972591E-18
   54.78800        5.4970536E-18
   54.94950        5.4968852E-18
   55.11100        5.4967876E-18
   55.27250        5.4963290E-18
   55.43400        5.4949459E-18
   55.59550        5.4924495E-18
   55.75700        5.4892615E-18
   55.91850        5.4861753E-18
   56.08000        5.4838208E-18
   56.24150        5.4822760E-18
   56.40300        5.4811246E-18
   56.56450        5.4798854E-18
   56.72600        5.4784391E-18
   56.88750        5.4771202E-18
   57.04900        5.4764287E-18
   57.21050        5.4766102E-18
   57.37200        5.4774312E-18
   57.53350        5.4783068E-18
   57.69500        5.4786807E-18
   57.85650        5.4783878E-18
   58.01800        5.4777596E-18
   58.17950        5.4774118E-18
   58.34100        5.4778498E-18
   58.50250        5.4791464E-18
   58.66400        5.4809000E-18
   58.82550        5.4825200E-18
   58.98700        5.4836491E-18
   59.14850        5.4844172E-18
   59.31000        5.4853101E-18
   59.47150        5.4867337E-18
   59.63300        5.4886201E-18
   59.79450        5.4904163E-18
   59.95600        5.4914982E-18
   60.11750        5.4916963E-18
   60.27900        5.4914862E-18
   60.44050        5.4916628E-18
   60.60200        5.4927390E-18
   60.76350        5.4945555E-18
   60.92500        5.4964348E-18
   61.08650        5.4977298E-18
   61.24800        5.4983130E-18
   61.40950        5.4985901E-18
   61.57100        5.4990682E-18
   61.73250        5.4998585E-18
   61.89400        5.5005439E-18
   62.05550        5.5005021E-18
   62.21700        5.4994110E-18
   62.37850        5.4974990E-18
   62.54000        5.4953632E-18
   62.70150        5.4935203E-18
   62.86300        5.4920640E-18
   63.02450        5.4906822E-18
   63.18600        5.4889720E-18
   63.34750        5.4868180E-18
   63.50900        5.4845437E-18
   63.67050        5.4827338E-18
   63.83200        5.4818616E-18
   63.99350        5.4819724E-18
   64.15500        5.4826594E-18
   64.31650        5.4833497E-18
   64.47800        5.4837223E-18
   64.63950        5.4839527E-18
   64.80100        5.4845789E-18
   64.96250        5.4860554E-18
   65.12400        5.4883231E-18
   65.28550        5.4907550E-18
   65.44700        5.4925732E-18
   65.60850        5.4934318E-18
   65.77000        5.4936965E-18
   65.93150        5.4941564E-18
   66.09300        5.4953715E-18
   66.25450        5.4971888E-18
   66.41600        5.4988200E-18
   66.57750        5.4994528E-18
   66.73900        5.4988974E-18
   66.90050        5.4977389E-18
   67.06200        5.4968795E-18
   67.22350        5.4968447E-18
   67.38500        5.4974101E-18
   67.54650        5.4978340E-18
   67.70800        5.4974738E-18
   67.86950        5.4962876E-18
   68.03100        5.4948545E-18
   68.19250        5.4939215E-18
   68.35400        5.4938594E-18
   68.51550        5.4944269E-18
   68.67700        5.4949922E-18
   68.83850        5.4950133E-18
   69.00000        5.4944306E-18
   69.16150        5.4936870E-18
   69.32300        5.4933970E-18
   69.48450        5.4938942E-18
   69.64600        5.4949769E-18
   69.80750        5.4960337E-18
   69.96900        5.4964766E-18
   70.13050        5.4961826E-18
   70.29200        5.4955936E-18
   70.45350        5.4953918E-18
   70.61500        5.4959762E-18
   70.77650        5.4971413E-18
   70.93800        5.4982319E-18
   71.09950        5.4986707E-18
   71.26100        5.4984370E-18
   71.42250        5.4980871E-18
   71.58400        5.4982919E-18
   71.74550        5.4992696E-18
   71.90700        5.5005956E-18
   72.06850        5.5015650E-18
   72.23000        5.5017929E-18
   72.39150        5.5015456E-18
   72.55300        5.5015253E-18
   72.71450        5.5022900E-18
   72.87600        5.5037860E-18
   73.03750        5.5053829E-18
   73.19900        5.5063498E-18
   73.36050        5.5063867E-18
   73.52200        5.5057865E-18
   73.68350        5.5051401E-18
   73.84500        5.5048390E-18
   74.00650        5.5047823E-18
   74.16800        5.5044750E-18
   74.32950        5.5034353E-18
   74.49100        5.5015940E-18
   74.65250        5.4993986E-18
   74.81400        5.4975462E-18
   74.97550        5.4965254E-18
   75.13700        5.4962897E-18
   75.29850        5.4963025E-18
   75.46000        5.4959332E-18
   75.62150        5.4949492E-18
   75.78300        5.4937333E-18
   75.94450        5.4930384E-18
   76.10600        5.4934367E-18
   76.26750        5.4948661E-18
   76.42900        5.4966532E-18
   76.59050        5.4980197E-18
   76.75200        5.4986827E-18
   76.91350        5.4990715E-18
   77.07500        5.4999582E-18
   77.23650        5.5017913E-18
   77.39800        5.5042761E-18
   77.55950        5.5065517E-18
   77.72100        5.5078371E-18
   77.88250        5.5080228E-18
   78.04400        5.5077308E-18
   78.20550        5.5078065E-18
   78.36700        5.5086722E-18
   78.52850        5.5100440E-18
   78.69000        5.5112294E-18
   78.85150        5.5117046E-18
   79.01300        5.5115148E-18
   79.17450        5.5111938E-18
   79.33600        5.5112964E-18
   79.49750        5.5119420E-18
   79.65900        5.5127067E-18
   79.82050        5.5129272E-18
   79.98200        5.5121637E-18
   80.14350        5.5104986E-18
   80.30500        5.5084716E-18
   80.46650        5.5067142E-18
   80.62800        5.5055483E-18
   80.78950        5.5048216E-18
   80.95100        5.5041012E-18
   81.11250        5.5030792E-18
   81.27400        5.5018827E-18
   81.43550        5.5010269E-18
   81.59700        5.5010137E-18
   81.75850        5.5018793E-18
   81.92000        5.5030626E-18
   82.08150        5.5037591E-18
   82.24300        5.5035110E-18
   82.40450        5.5025634E-18
   82.56600        5.5016754E-18
   82.72750        5.5015133E-18
   82.88900        5.5021333E-18
   83.05050        5.5029733E-18
   83.21200        5.5033728E-18
   83.37350        5.5031772E-18
   83.53500        5.5028910E-18
   83.69650        5.5032674E-18
   83.85800        5.5046587E-18
   84.01950        5.5066803E-18
   84.18100        5.5084637E-18
   84.34250        5.5092859E-18
   84.50400        5.5090680E-18
   84.66550        5.5083797E-18
   84.82700        5.5079810E-18
   84.98850        5.5082710E-18
   85.15000        5.5090493E-18
   85.31150        5.5097384E-18
   85.47300        5.5098463E-18
   85.63450        5.5093360E-18
   85.79600        5.5086399E-18
   85.95750        5.5083223E-18
   86.11900        5.5086300E-18
   86.28050        5.5092599E-18
   86.44200        5.5095138E-18
   86.60350        5.5087727E-18
   86.76500        5.5069632E-18
   86.92650        5.5046719E-18
   87.08800        5.5027843E-18
   87.24950        5.5018864E-18
   87.41100        5.5018860E-18
   87.57250        5.5021643E-18
   87.73400        5.5021515E-18
   87.89550        5.5018558E-18
   88.05700        5.5018835E-18
   88.21850        5.5029009E-18
   88.38000        5.5049941E-18
   88.54150        5.5074670E-18
   88.70300        5.5092992E-18
   88.86450        5.5098856E-18
   89.02600        5.5094596E-18
   89.18750        5.5088533E-18
   89.34900        5.5088194E-18
   89.51050        5.5094816E-18
   89.67200        5.5103505E-18
   89.83350        5.5108418E-18
   89.99500        5.5108203E-18
   90.15650        5.5107310E-18
   90.31800        5.5112331E-18
   90.47950        5.5126612E-18
   90.64100        5.5147321E-18
   90.80250        5.5167012E-18
   90.96400        5.5178290E-18
   91.12550        5.5178249E-18
   91.28700        5.5169870E-18
   91.44850        5.5159658E-18
   91.61000        5.5153165E-18
   91.77150        5.5151357E-18
   91.93300        5.5150332E-18
   92.09450        5.5144864E-18
   92.25600        5.5133279E-18
   92.41750        5.5119925E-18
   92.57900        5.5112662E-18
   92.74050        5.5116823E-18
   92.90200        5.5130219E-18
   93.06350        5.5143661E-18
   93.22500        5.5147308E-18
   93.38650        5.5137974E-18
   93.54800        5.5121430E-18
   93.70950        5.5107550E-18
   93.87100        5.5102148E-18
   94.03250        5.5102500E-18
   94.19400        5.5100254E-18
   94.35550        5.5089273E-18
   94.51700        5.5071448E-18
   94.67850        5.5055653E-18
   94.84000        5.5050628E-18
   95.00150        5.5057886E-18
   95.16300        5.5070418E-18
   95.32450        5.5078036E-18
   95.48600        5.5074802E-18
   95.64750        5.5062915E-18
   95.80900        5.5050342E-18
   95.97050        5.5044899E-18
   96.13200        5.5049101E-18
   96.29350        5.5059478E-18
   96.45500        5.5070079E-18
   96.61650        5.5077453E-18
   96.77800        5.5083545E-18
   96.93950        5.5094452E-18
   97.10100        5.5115731E-18
   97.26250        5.5147461E-18
   97.42400        5.5182571E-18
   97.58550        5.5210240E-18
   97.74700        5.5222636E-18
   97.90850        5.5220100E-18
   98.07000        5.5210720E-18
   98.23150        5.5204032E-18
   98.39300        5.5203615E-18
   98.55450        5.5204649E-18
   98.71600        5.5198722E-18
   98.87750        5.5182013E-18
   99.03900        5.5159766E-18
   99.20050        5.5143044E-18
   99.36200        5.5140087E-18
   99.52350        5.5149591E-18
   99.68500        5.5161528E-18
   99.84650        5.5164857E-18
   100.0080        5.5155766E-18
   100.1695        5.5139773E-18
   100.3310        5.5126521E-18
   100.4925        5.5121943E-18
   100.6540        5.5124151E-18
   100.8155        5.5126000E-18
   100.9770        5.5121579E-18
   101.1385        5.5111264E-18
   101.3000        5.5101673E-18
   101.4615        5.5100850E-18
   101.6230        5.5112430E-18
   101.7845        5.5132928E-18
   101.9460        5.5153872E-18
   102.1075        5.5167124E-18
   102.2690        5.5169973E-18
   102.4305        5.5166470E-18
   102.5920        5.5164137E-18
   102.7535        5.5168211E-18
   102.9150        5.5177542E-18
   103.0765        5.5185586E-18
   103.2380        5.5185958E-18
   103.3995        5.5178365E-18
   103.5610        5.5169928E-18
   103.7225        5.5170163E-18
   103.8840        5.5183324E-18
   104.0455        5.5204297E-18
   104.2070        5.5221763E-18
   104.3685        5.5226610E-18
   104.5300        5.5218769E-18
   104.6915        5.5206857E-18
   104.8530        5.5200877E-18
   105.0145        5.5204036E-18
   105.1760        5.5210563E-18
   105.3375        5.5211138E-18
   105.4990        5.5201224E-18
   105.6605        5.5185230E-18
   105.8220        5.5173166E-18
   105.9835        5.5172719E-18
   106.1450        5.5183324E-18
   106.3065        5.5196716E-18
   106.4680        5.5203333E-18
   106.6295        5.5199127E-18
   106.7910        5.5187873E-18
   106.9525        5.5177649E-18
   107.1140        5.5174812E-18
   107.2755        5.5179763E-18
   107.4370        5.5187294E-18
   107.5985        5.5190876E-18
   107.7600        5.5187815E-18
   107.9215        5.5181649E-18
   108.0830        5.5180007E-18
   108.2445        5.5189251E-18
   108.4060        5.5209380E-18
   108.5675        5.5233079E-18
   108.7290        5.5250028E-18
   108.8905        5.5253833E-18
   109.0520        5.5246450E-18
   109.2135        5.5236234E-18
   109.3750        5.5230916E-18
   109.5365        5.5230887E-18
   109.6980        5.5228906E-18
   109.8595        5.5216548E-18
   110.0210        5.5192415E-18
   110.1825        5.5164749E-18
   110.3440        5.5146068E-18
   110.5055        5.5143942E-18
   110.6670        5.5155547E-18
   110.8285        5.5170511E-18
   110.9900        5.5179415E-18
   111.1515        5.5180731E-18
   111.3130        5.5180578E-18
   111.4745        5.5186269E-18
   111.6360        5.5199549E-18
   111.7975        5.5215079E-18
   111.9590        5.5224898E-18
   112.1205        5.5224708E-18
   112.2820        5.5216978E-18
   112.4435        5.5208789E-18
   112.6050        5.5206671E-18
   112.7665        5.5212366E-18
   112.9280        5.5222090E-18
   113.0895        5.5229373E-18
   113.2510        5.5229327E-18
   113.4125        5.5221697E-18
   113.5740        5.5210869E-18
   113.7355        5.5202721E-18
   113.8970        5.5200190E-18
   114.0585        5.5200827E-18
   114.2200        5.5198676E-18
   114.3815        5.5189610E-18
   114.5430        5.5175900E-18
   114.7045        5.5165804E-18
   114.8660        5.5167715E-18
   115.0275        5.5183307E-18
   115.1890        5.5205463E-18
   115.3505        5.5223475E-18
   115.5120        5.5231379E-18
   115.6735        5.5232301E-18
   115.8350        5.5234973E-18
   115.9965        5.5245354E-18
   116.1580        5.5260860E-18
   116.3195        5.5272271E-18
   116.4810        5.5271650E-18
   116.6425        5.5259247E-18
   116.8040        5.5243596E-18
   116.9655        5.5234932E-18
   117.1270        5.5237570E-18
   117.2885        5.5247443E-18
   117.4500        5.5255988E-18
   117.6115        5.5256790E-18
   117.7730        5.5249598E-18
   117.9345        5.5239303E-18
   118.0960        5.5231598E-18
   118.2575        5.5228720E-18
   118.4190        5.5228157E-18
   118.5805        5.5224662E-18
   118.7420        5.5214169E-18