  -27.90000       -2.0343980E-18
  -27.73850       -2.0375988E-18
  -27.57700       -2.0420188E-18
  -27.41550       -2.0452218E-18
  -27.25400       -2.0460782E-18
  -27.09250       -2.0455225E-18
  -26.93100       -2.0457409E-18
  -26.76950       -2.0484150E-18
  -26.60800       -2.0533652E-18
  -26.44650       -2.0586263E-18
  -26.28500       -2.0618991E-18
  -26.12350       -2.0622870E-18
  -25.96200       -2.0609722E-18
  -25.80050       -2.0603361E-18
  -25.63900       -2.0621722E-18
  -25.47750       -2.0663607E-18
  -25.31600       -2.0709951E-18
  -25.15450       -2.0738603E-18
  -24.99300       -2.0741213E-18
  -24.83150       -2.0729429E-18
  -24.67000       -2.0725709E-18
  -24.50850       -2.0746041E-18
  -24.34700       -2.0787708E-18
  -24.18550       -2.0831526E-18
  -24.02400       -2.0856575E-18
  -23.86250       -2.0856172E-18
  -23.70100       -2.0842896E-18
  -23.53950       -2.0838874E-18
  -23.37800       -2.0858898E-18
  -23.21650       -2.0899181E-18
  -23.05500       -2.0940313E-18
  -22.89350       -2.0962047E-18
  -22.73200       -2.0958703E-18
  -22.57050       -2.0943361E-18
  -22.40900       -2.0937765E-18
  -22.24750       -2.0955732E-18
  -22.08600       -2.0992715E-18
  -21.92450       -2.1029533E-18
  -21.76300       -2.1047305E-18
  -21.60150       -2.1042184E-18
  -21.44000       -2.1028435E-18
  -21.27850       -2.1027589E-18
  -21.11700       -2.1051864E-18
  -20.95550       -2.1094621E-18
  -20.79400       -2.1135143E-18
  -20.63250       -2.1154094E-18
  -20.47100       -2.1147910E-18
  -20.30950       -2.1131222E-18
  -20.14800       -2.1125581E-18
  -19.98650       -2.1143117E-18
  -19.82500       -2.1177528E-18
  -19.66350       -2.1209211E-18
  -19.50200       -2.1220496E-18
  -19.34050       -2.1209465E-18
  -19.17900       -2.1191842E-18
  -19.01750       -2.1189480E-18
  -18.85600       -2.1213971E-18
  -18.69450       -2.1257760E-18
  -18.53300       -2.1299390E-18
  -18.37150       -2.1319151E-18
  -18.21000       -2.1313415E-18
  -18.04850       -2.1296933E-18
  -17.88700       -2.1291366E-18
  -17.72550       -2.1308716E-18
  -17.56400       -2.1342186E-18
  -17.40250       -2.1371415E-18
  -17.24100       -2.1378247E-18
  -17.07950       -2.1361040E-18
  -16.91800       -2.1336557E-18
  -16.75650       -2.1327928E-18
  -16.59500       -2.1347728E-18
  -16.43350       -2.1388916E-18
  -16.27200       -2.1430413E-18
  -16.11050       -2.1453041E-18
  -15.94900       -2.1453709E-18
  -15.78750       -2.1447174E-18
  -15.62600       -2.1454267E-18
  -15.46450       -2.1485597E-18
  -15.30300       -2.1533143E-18
  -15.14150       -2.1576043E-18
  -14.98000       -2.1596031E-18
  -14.81850       -2.1590866E-18
  -14.65700       -2.1575714E-18
  -14.49550       -2.1571568E-18
  -14.33400       -2.1589486E-18
  -14.17250       -2.1622569E-18
  -14.01100       -2.1651552E-18
  -13.84950       -2.1659689E-18
  -13.68800       -2.1645598E-18
  -13.52650       -2.1624474E-18
  -13.36500       -2.1616756E-18
  -13.20350       -2.1632965E-18
  -13.04200       -2.1666098E-18
  -12.88050       -2.1697264E-18
  -12.71900       -2.1710282E-18
  -12.55750       -2.1704034E-18
  -12.39600       -2.1693223E-18
  -12.23450       -2.1697028E-18
  -12.07300       -2.1724220E-18
  -11.91150       -2.1766083E-18
  -11.75000       -2.1802541E-18
  -11.58850       -2.1816949E-18
  -11.42700       -2.1808267E-18
  -11.26550       -2.1791552E-18
  -11.10400       -2.1786227E-18
  -10.94250       -2.1801131E-18
  -10.78100       -2.1827805E-18
  -10.61950       -2.1847083E-18
  -10.45800       -2.1844140E-18
  -10.29650       -2.1820410E-18
  -10.13500       -2.1793165E-18
  -9.973500       -2.1782838E-18
  -9.812000       -2.1797690E-18
  -9.650500       -2.1827450E-18
  -9.489000       -2.1851035E-18
  -9.327500       -2.1852441E-18
  -9.166000       -2.1832866E-18
  -9.004500       -2.1809676E-18
  -8.843000       -2.1803075E-18
  -8.681500       -2.1820667E-18
  -8.520000       -2.1851705E-18
  -8.358500       -2.1875476E-18
  -8.197000       -2.1877531E-18
  -8.035500       -2.1861205E-18
  -7.874000       -2.1845679E-18
  -7.712500       -2.1851976E-18
  -7.551000       -2.1887333E-18
  -7.389500       -2.1939806E-18
  -7.228000       -2.1987017E-18
  -7.066500       -2.2012571E-18
  -6.905000       -2.2017745E-18
  -6.743500       -2.2019767E-18
  -6.582000       -2.2038048E-18
  -6.420500       -2.2078844E-18
  -6.259000       -2.2129943E-18
  -6.097500       -2.2169481E-18
  -5.936000       -2.2182240E-18
  -5.774500       -2.2171240E-18
  -5.613000       -2.2155729E-18
  -5.451500       -2.2157005E-18
  -5.290000       -2.2182763E-18
  -5.128500       -2.2221727E-18
  -4.967000       -2.2252623E-18
  -4.805500       -2.2260609E-18
  -4.644000       -2.2248621E-18
  -4.482500       -2.2235084E-18
  -4.321000       -2.2239783E-18
  -4.159500       -2.2268794E-18
  -3.998000       -2.2310008E-18
  -3.836500       -2.2342543E-18
  -3.675000       -2.2352716E-18
  -3.513500       -2.2344200E-18
  -3.352000       -2.2334817E-18
  -3.190500       -2.2342587E-18
  -3.029000       -2.2371797E-18
  -2.867500       -2.2409652E-18
  -2.706000       -2.2435860E-18
  -2.544500       -2.2437696E-18
  -2.383000       -2.2419173E-18
  -2.221500       -2.2397495E-18
  -2.060000       -2.2389823E-18
  -1.898500       -2.2400465E-18
  -1.737000       -2.2418152E-18
  -1.575500       -2.2425272E-18
  -1.414000       -2.2411942E-18
  -1.252500       -2.2384060E-18
  -1.091000       -2.2359130E-18
 -0.9295000       -2.2353131E-18
 -0.7680000       -2.2368283E-18
 -0.6065000       -2.2391171E-18
 -0.4450000       -2.2402803E-18
 -0.2835000       -2.2392776E-18
 -0.1220000       -2.2366869E-18
  3.9500002E-02   -2.2342303E-18
  0.2010000       -2.2334329E-18
  0.3625000       -2.2344651E-18
  0.5240000       -2.2360580E-18
  0.6855000       -2.2365489E-18
  0.8470000       -2.2352352E-18
   1.008500       -2.2329815E-18
   1.170000       -2.2316088E-18
   1.331500       -2.2325441E-18
   1.493000       -2.2357586E-18
   1.654500       -2.2397979E-18
   1.816000       -2.2428657E-18
   1.977500       -2.2441257E-18
   2.139000       -2.2442514E-18
   2.300500       -2.2448350E-18
   2.462000       -2.2471339E-18
   2.623500       -2.2511013E-18
   2.785000       -2.2554175E-18
   2.946500       -2.2584787E-18
   3.108000       -2.2595853E-18
   3.269500       -2.2594583E-18
   3.431000       -2.2596994E-18
   3.592500       -2.2616113E-18
   3.754000       -2.2652368E-18
   3.915500       -2.2693340E-18
   4.077000       -2.2722842E-18
   4.238500       -2.2732644E-18
   4.400000       -2.2728278E-18
   4.561500       -2.2724597E-18
   4.723000       -2.2734586E-18
   4.884500       -2.2759713E-18
   5.046000       -2.2788977E-18
   5.207500       -2.2807258E-18
   5.369000       -2.2806565E-18
   5.530500       -2.2791769E-18
   5.692000       -2.2776631E-18
   5.853500       -2.2773356E-18
   6.015000       -2.2783575E-18
   6.176500       -2.2797548E-18
   6.338000       -2.2801817E-18
   6.499500       -2.2789558E-18
   6.661000       -2.2765760E-18
   6.822500       -2.2743759E-18
   6.984000       -2.2735870E-18
   7.145500       -2.2745217E-18
   7.307000       -2.2764525E-18
   7.468500       -2.2782279E-18
   7.630000       -2.2791491E-18
   7.791500       -2.2794502E-18
   7.953000       -2.2800644E-18
   8.114500       -2.2818664E-18
   8.276000       -2.2849692E-18
   8.437500       -2.2885767E-18
   8.599000       -2.2915054E-18
   8.760500       -2.2929852E-18
   8.922000       -2.2931659E-18
   9.083500       -2.2929622E-18
   9.245000       -2.2933609E-18
   9.406500       -2.2946991E-18
   9.568000       -2.2964438E-18
   9.729500       -2.2976222E-18
   9.891000       -2.2975806E-18
   10.05250       -2.2964988E-18
   10.21400       -2.2952750E-18
   10.37550       -2.2948612E-18
   10.53700       -2.2955544E-18
   10.69850       -2.2967799E-18
   10.86000       -2.2975217E-18
   11.02150       -2.2970950E-18
   11.18300       -2.2956775E-18
   11.34450       -2.2942053E-18
   11.50600       -2.2937148E-18
   11.66750       -2.2946081E-18
   11.82900       -2.2963870E-18
   11.99050       -2.2980527E-18
   12.15200       -2.2988762E-18
   12.31350       -2.2989661E-18
   12.47500       -2.2992145E-18
   12.63650       -2.3006521E-18
   12.79800       -2.3036742E-18
   12.95950       -2.3077069E-18
   13.12100       -2.3115682E-18
   13.28250       -2.3142750E-18
   13.44400       -2.3157143E-18
   13.60550       -2.3166798E-18
   13.76700       -2.3182409E-18
   13.92850       -2.3208928E-18
   14.09000       -2.3241110E-18
   14.25150       -2.3266622E-18
   14.41300       -2.3274569E-18
   14.57450       -2.3263425E-18
   14.73600       -2.3242458E-18
   14.89750       -2.3225381E-18
   15.05900       -2.3220747E-18
   15.22050       -2.3226098E-18
   15.38200       -2.3230222E-18
   15.54350       -2.3222049E-18
   15.70500       -2.3199616E-18
   15.86650       -2.3172460E-18
   16.02800       -2.3155352E-18
   16.18950       -2.3157873E-18
   16.35100       -2.3177435E-18
   16.51250       -2.3201070E-18
   16.67400       -2.3214783E-18
   16.83550       -2.3213624E-18
   16.99700       -2.3205080E-18
   17.15850       -2.3203154E-18
   17.32000       -2.3217521E-18
   17.48150       -2.3245777E-18
   17.64300       -2.3274646E-18
   17.80450       -2.3289396E-18
   17.96600       -2.3284504E-18
   18.12750       -2.3267728E-18
   18.28900       -2.3254446E-18
   18.45050       -2.3256495E-18
   18.61200       -2.3273589E-18
   18.77350       -2.3293840E-18
   18.93500       -2.3303018E-18
   19.09650       -2.3295675E-18
   19.25800       -2.3279919E-18
   19.41950       -2.3271906E-18
   19.58100       -2.3283999E-18
   19.74250       -2.3315361E-18
   19.90400       -2.3352179E-18
   20.06550       -2.3377729E-18
   20.22700       -2.3384861E-18
   20.38850       -2.3381385E-18
   20.55000       -2.3384034E-18
   20.71150       -2.3405309E-18
   20.87300       -2.3443345E-18
   21.03450       -2.3482737E-18
   21.19600       -2.3506134E-18
   21.35750       -2.3507739E-18
   21.51900       -2.3498137E-18
   21.68050       -2.3496466E-18
   21.84200       -2.3515570E-18
   22.00350       -2.3551681E-18
   22.16500       -2.3586776E-18
   22.32650       -2.3602042E-18
   22.48800       -2.3592256E-18
   22.64950       -2.3569968E-18
   22.81100       -2.3556057E-18
   22.97250       -2.3563743E-18
   23.13400       -2.3588315E-18
   23.29550       -2.3610560E-18
   23.45700       -2.3611571E-18
   23.61850       -2.3587762E-18
   23.78000       -2.3554518E-18
   23.94150       -2.3535338E-18
   24.10300       -2.3544311E-18
   24.26450       -2.3575135E-18
   24.42600       -2.3605417E-18
   24.58750       -2.3613293E-18
   24.74900       -2.3594097E-18
   24.91050       -2.3564188E-18
   25.07200       -2.3548703E-18
   25.23350       -2.3562265E-18
   25.39500       -2.3597256E-18
   25.55650       -2.3629128E-18
   25.71800       -2.3634912E-18
   25.87950       -2.3611087E-18
   26.04100       -2.3576825E-18
   26.20250       -2.3559769E-18
   26.36400       -2.3575018E-18
   26.52550       -2.3613453E-18
   26.68700       -2.3648552E-18
   26.84850       -2.3656644E-18
   27.01000       -2.3635296E-18
   27.17150       -2.3605534E-18
   27.33300       -2.3596167E-18
   27.49450       -2.3621983E-18
   27.65600       -2.3672610E-18
   27.81750       -2.3720581E-18
   27.97900       -2.3742385E-18
   28.14050       -2.3736345E-18
   28.30200       -2.3723563E-18
   28.46350       -2.3731096E-18
   28.62500       -2.3770358E-18
   28.78650       -2.3827295E-18
   28.94800       -2.3872104E-18
   29.10950       -2.3881223E-18
   29.27100       -2.3854747E-18
   29.43250       -2.3815988E-18
   29.59400       -2.3793509E-18
   29.75550       -2.3799479E-18
   29.91700       -2.3821005E-18
   30.07850       -2.3831047E-18
   30.24000       -2.3810621E-18
   30.40150       -2.3764806E-18
   30.56300       -2.3720169E-18
   30.72450       -2.3705224E-18
   30.88600       -2.3728946E-18
   31.04750       -2.3774050E-18
   31.20900       -2.3810309E-18
   31.37050       -2.3817696E-18
   31.53200       -2.3801655E-18
   31.69350       -2.3788488E-18
   31.85500       -2.3804478E-18
   32.01650       -2.3854845E-18
   32.17800       -2.3918972E-18
   32.33950       -2.3965724E-18
   32.50100       -2.3977106E-18
   32.66250       -2.3961813E-18
   32.82400       -2.3948194E-18
   32.98550       -2.3961896E-18
   33.14700       -2.4005458E-18
   33.30850       -2.4055641E-18
   33.47000       -2.4080746E-18
   33.63150       -2.4064706E-18
   33.79300       -2.4019443E-18
   33.95450       -2.3976008E-18
   34.11600       -2.3961257E-18
   34.27750       -2.3977881E-18
   34.43900       -2.4002988E-18
   34.60050       -2.4006345E-18
   34.76200       -2.3974196E-18
   34.92350       -2.3920558E-18
   35.08500       -2.3877170E-18
   35.24650       -2.3869728E-18
   35.40800       -2.3898507E-18
   35.56950       -2.3938080E-18
   35.73100       -2.3956621E-18
   35.89250       -2.3940098E-18
   36.05400       -2.3903044E-18
   36.21550       -2.3877755E-18
   36.37700       -2.3889994E-18
   36.53850       -2.3939558E-18
   36.70000       -2.4000534E-18
   36.86150       -2.4040991E-18
   37.02300       -2.4047114E-18
   37.18450       -2.4033214E-18
   37.34600       -2.4030120E-18
   37.50750       -2.4060738E-18
   37.66900       -2.4121588E-18
   37.83050       -2.4184608E-18
   37.99200       -2.4217772E-18
   38.15350       -2.4208932E-18
   38.31500       -2.4174699E-18
   38.47650       -2.4147582E-18
   38.63800       -2.4151519E-18
   38.79950       -2.4184416E-18
   38.96100       -2.4220804E-18
   39.12250       -2.4232330E-18
   39.28400       -2.4210040E-18
   39.44550       -2.4171371E-18
   39.60700       -2.4146701E-18
   39.76850       -2.4155856E-18
   39.93000       -2.4192760E-18
   40.09150       -2.4229729E-18
   40.25300       -2.4238189E-18
   40.41450       -2.4209955E-18
   40.57600       -2.4163015E-18
   40.73750       -2.4127638E-18
   40.89900       -2.4123449E-18
   41.06050       -2.4144943E-18
   41.22200       -2.4166396E-18
   41.38350       -2.4162347E-18
   41.54500       -2.4127897E-18
   41.70650       -2.4083200E-18
   41.86800       -2.4058594E-18
   42.02950       -2.4071644E-18
   42.19100       -2.4113678E-18
   42.35250       -2.4156304E-18
   42.51400       -2.4173133E-18
   42.67550       -2.4160016E-18
   42.83700       -2.4138402E-18
   42.99850       -2.4138809E-18
   43.16000       -2.4177213E-18
   43.32150       -2.4242255E-18
   43.48300       -2.4303392E-18
   43.64450       -2.4333644E-18
   43.80600       -2.4329737E-18
   43.96750       -2.4314056E-18
   44.12900       -2.4316819E-18
   44.29050       -2.4352150E-18
   44.45200       -2.4406452E-18
   44.61350       -2.4448057E-18
   44.77500       -2.4451099E-18
   44.93650       -2.4415390E-18
   45.09800       -2.4367192E-18
   45.25950       -2.4340081E-18
   45.42100       -2.4350326E-18
   45.58250       -2.4385301E-18
   45.74400       -2.4413675E-18
   45.90550       -2.4409659E-18
   46.06700       -2.4372941E-18
   46.22850       -2.4329171E-18
   46.39000       -2.4310644E-18
   46.55150       -2.4331770E-18
   46.71300       -2.4377869E-18
   46.87450       -2.4415919E-18
   47.03600       -2.4419273E-18
   47.19750       -2.4387696E-18
   47.35900       -2.4347621E-18
   47.52050       -2.4332392E-18
   47.68200       -2.4357328E-18
   47.84350       -2.4408388E-18
   48.00500       -2.4453026E-18
   48.16650       -2.4464903E-18
   48.32800       -2.4443652E-18
   48.48950       -2.4414682E-18
   48.65100       -2.4409266E-18
   48.81250       -2.4440149E-18
   48.97400       -2.4491399E-18
   49.13550       -2.4530120E-18
   49.29700       -2.4531232E-18
   49.45850       -2.4496249E-18
   49.62000       -2.4451945E-18
   49.78150       -2.4430101E-18
   49.94300       -2.4443814E-18
   50.10450       -2.4478433E-18
   50.26600       -2.4503747E-18
   50.42750       -2.4497922E-18
   50.58900       -2.4464686E-18
   50.75050       -2.4430779E-18
   50.91200       -2.4425688E-18
   51.07350       -2.4459119E-18
   51.23500       -2.4513336E-18
   51.39650       -2.4556294E-18
   51.55800       -2.4565591E-18
   51.71950       -2.4545023E-18
   51.88100       -2.4521223E-18
   52.04250       -2.4522812E-18
   52.20400       -2.4557888E-18
   52.36550       -2.4607215E-18
   52.52700       -2.4638424E-18
   52.68850       -2.4630649E-18
   52.85000       -2.4590793E-18
   53.01150       -2.4548669E-18
   53.17300       -2.4534466E-18
   53.33450       -2.4555591E-18
   53.49600       -2.4590857E-18
   53.65750       -2.4606719E-18
   53.81900       -2.4583394E-18
   53.98050       -2.4530823E-18
   54.14200       -2.4481982E-18
   54.30350       -2.4468275E-18
   54.46500       -2.4495850E-18
   54.62650       -2.4540972E-18
   54.78800       -2.4568313E-18
   54.94950       -2.4558149E-18
   55.11100       -2.4521728E-18
   55.27250       -2.4492948E-18
   55.43400       -2.4502477E-18
   55.59550       -2.4554000E-18
   55.75700       -2.4620681E-18
   55.91850       -2.4664828E-18
   56.08000       -2.4665895E-18
   56.24150       -2.4635831E-18
   56.40300       -2.4610077E-18
   56.56450       -2.4620849E-18
   56.72600       -2.4672808E-18
   56.88750       -2.4739535E-18
   57.04900       -2.4783506E-18
   57.21050       -2.4784732E-18
   57.37200       -2.4756304E-18
   57.53350       -2.4734812E-18
   57.69500       -2.4752414E-18
   57.85650       -2.4811723E-18
   58.01800       -2.4882606E-18
   58.17950       -2.4923843E-18
   58.34100       -2.4913557E-18
   58.50250       -2.4865335E-18
   58.66400       -2.4817631E-18
   58.82550       -2.4804307E-18
   58.98700       -2.4828748E-18
   59.14850       -2.4861579E-18
   59.31000       -2.4863879E-18
   59.47150       -2.4818202E-18
   59.63300       -2.4743338E-18
   59.79450       -2.4681140E-18
   59.95600       -2.4665291E-18
   60.11750       -2.4695860E-18
   60.27900       -2.4739305E-18
   60.44050       -2.4754155E-18
   60.60200       -2.4722733E-18
   60.76350       -2.4664578E-18
   60.92500       -2.4621198E-18
   61.08650       -2.4623926E-18
   61.24800       -2.4669640E-18
   61.40950       -2.4723113E-18
   61.57100       -2.4744386E-18
   61.73250       -2.4720049E-18
   61.89400       -2.4674181E-18
   62.05550       -2.4650263E-18
   62.21700       -2.4677676E-18
   62.37850       -2.4748551E-18
   62.54000       -2.4823016E-18
   62.70150       -2.4859110E-18
   62.86300       -2.4844616E-18
   63.02450       -2.4806179E-18
   63.18600       -2.4788537E-18
   63.34750       -2.4819484E-18
   63.50900       -2.4887819E-18
   63.67050       -2.4951529E-18
   63.83200       -2.4970362E-18
   63.99350       -2.4937649E-18
   64.15500       -2.4886461E-18
   64.31650       -2.4864607E-18
   64.47800       -2.4897568E-18
   64.63950       -2.4967940E-18
   64.80100       -2.5027927E-18
   64.96250       -2.5035595E-18
   65.12400       -2.4987195E-18
   65.28550       -2.4920245E-18
   65.44700       -2.4884831E-18
   65.60850       -2.4905052E-18
   65.77000       -2.4960562E-18
   65.93150       -2.5002750E-18
   66.09300       -2.4993074E-18
   66.25450       -2.4933989E-18
   66.41600       -2.4868174E-18
   66.57750       -2.4846407E-18
   66.73900       -2.4888425E-18
   66.90050       -2.4967028E-18
   67.06200       -2.5027797E-18
   67.22350       -2.5029728E-18
   67.38500       -2.4975850E-18
   67.54650       -2.4910470E-18
   67.70800       -2.4885003E-18
   67.86950       -2.4918506E-18
   68.03100       -2.4983144E-18
   68.19250       -2.5025969E-18
   68.35400       -2.5010499E-18
   68.51550       -2.4945999E-18
   68.67700       -2.4881642E-18
   68.83850       -2.4869435E-18
   69.00000       -2.4924164E-18
   69.16150       -2.5011293E-18
   69.32300       -2.5072550E-18
   69.48450       -2.5069803E-18
   69.64600       -2.5013514E-18
   69.80750       -2.4953816E-18
   69.96900       -2.4941137E-18
   70.13050       -2.4986843E-18
   70.29200       -2.5054627E-18
   70.45350       -2.5089281E-18
   70.61500       -2.5060506E-18
   70.77650       -2.4987495E-18
   70.93800       -2.4925043E-18
   71.09950       -2.4921843E-18
   71.26100       -2.4983181E-18
   71.42250       -2.5066846E-18
   71.58400       -2.5115453E-18
   71.74550       -2.5100262E-18
   71.90700       -2.5042649E-18
   72.06850       -2.4996803E-18
   72.23000       -2.5007169E-18
   72.39150       -2.5073693E-18
   72.55300       -2.5151690E-18
   72.71450       -2.5186477E-18
   72.87600       -2.5156080E-18
   73.03750       -2.5088804E-18
   73.19900       -2.5041911E-18
   73.36050       -2.5057493E-18
   73.52200       -2.5129499E-18
   73.68350       -2.5207601E-18
   73.84500       -2.5235260E-18
   74.00650       -2.5192958E-18
   74.16800       -2.5113299E-18
   74.32950       -2.5056101E-18
   74.49100       -2.5062557E-18
   74.65250       -2.5123682E-18
   74.81400       -2.5187722E-18
   74.97550       -2.5201067E-18
   75.13700       -2.5151006E-18
   75.29850       -2.5076936E-18
   75.46000       -2.5040873E-18
   75.62150       -2.5079632E-18
   75.78300       -2.5175606E-18
   75.94450       -2.5268949E-18
   76.10600       -2.5302175E-18
   76.26750       -2.5263076E-18
   76.42900       -2.5192987E-18
   76.59050       -2.5154008E-18
   76.75200       -2.5180650E-18
   76.91350       -2.5253123E-18
   77.07500       -2.5312988E-18
   77.23650       -2.5308923E-18
   77.39800       -2.5237369E-18
   77.55950       -2.5146531E-18
   77.72100       -2.5100469E-18
   77.88250       -2.5130537E-18
   78.04400       -2.5211437E-18
   78.20550       -2.5280279E-18
   78.36700       -2.5284155E-18
   78.52850       -2.5219955E-18
   78.69000       -2.5136160E-18
   78.85150       -2.5095196E-18
   79.01300       -2.5125402E-18
   79.17450       -2.5199460E-18
   79.33600       -2.5255987E-18
   79.49750       -2.5247734E-18
   79.65900       -2.5179241E-18
   79.82050       -2.5104487E-18
   79.98200       -2.5086117E-18
   80.14350       -2.5147285E-18
   80.30500       -2.5253303E-18
   80.46650       -2.5337491E-18
   80.62800       -2.5351547E-18
   80.78950       -2.5301722E-18
   80.95100       -2.5242903E-18
   81.11250       -2.5235165E-18
   81.27400       -2.5296488E-18
   81.43550       -2.5388570E-18
   81.59700       -2.5446687E-18
   81.75850       -2.5430508E-18
   81.92000       -2.5356272E-18
   82.08150       -2.5285083E-18
   82.24300       -2.5276187E-18
   82.40450       -2.5341197E-18
   82.56600       -2.5434817E-18
   82.72750       -2.5489372E-18
   82.88900       -2.5466556E-18
   83.05050       -2.5386504E-18
   83.21200       -2.5311861E-18
   83.37350       -2.5299143E-18
   83.53500       -2.5355030E-18
   83.69650       -2.5431349E-18
   83.85800       -2.5462714E-18
   84.01950       -2.5417945E-18
   84.18100       -2.5325330E-18
   84.34250       -2.5251868E-18
   84.50400       -2.5252019E-18
   84.66550       -2.5325247E-18
   84.82700       -2.5415358E-18
   84.98850       -2.5452769E-18
   85.15000       -2.5407568E-18
   85.31150       -2.5312618E-18
   85.47300       -2.5238470E-18
   85.63450       -2.5239175E-18
   85.79600       -2.5310643E-18
   85.95750       -2.5394130E-18
   86.11900       -2.5422528E-18
   86.28050       -2.5373612E-18
   86.44200       -2.5288731E-18
   86.60350       -2.5241824E-18
   86.76500       -2.5282258E-18
   86.92650       -2.5395772E-18
   87.08800       -2.5513877E-18
   87.24950       -2.5564991E-18
   87.41100       -2.5528092E-18
   87.57250       -2.5447486E-18
   87.73400       -2.5397510E-18
   87.89550       -2.5424360E-18
   88.05700       -2.5510198E-18
   88.21850       -2.5587058E-18
   88.38000       -2.5589918E-18
   88.54150       -2.5507860E-18
   88.70300       -2.5393704E-18
   88.86450       -2.5324525E-18
   89.02600       -2.5343182E-18
   89.18750       -2.5425907E-18
   89.34900       -2.5500847E-18
   89.51050       -2.5503473E-18
   89.67200       -2.5426335E-18
   89.83350       -2.5324924E-18
   89.99500       -2.5275122E-18
   90.15650       -2.5314870E-18
   90.31800       -2.5415139E-18
   90.47950       -2.5502725E-18
   90.64100       -2.5517389E-18
   90.80250       -2.5458971E-18
   90.96400       -2.5387790E-18
   91.12550       -2.5377725E-18
   91.28700       -2.5458140E-18
   91.44850       -2.5589926E-18
   91.61000       -2.5694496E-18
   91.77150       -2.5713598E-18
   91.93300       -2.5653534E-18
   92.09450       -2.5579338E-18
   92.25600       -2.5563407E-18
   92.41750       -2.5628616E-18
   92.57900       -2.5730441E-18
   92.74050       -2.5791913E-18
   92.90200       -2.5764197E-18
   93.06350       -2.5665415E-18
   93.22500       -2.5567307E-18
   93.38650       -2.5539948E-18
   93.54800       -2.5597491E-18
   93.70950       -2.5687093E-18
   93.87100       -2.5729815E-18
   94.03250       -2.5681716E-18
   94.19400       -2.5568070E-18
   94.35550       -2.5464193E-18
   94.51700       -2.5437721E-18
   94.67850       -2.5496736E-18
   94.84000       -2.5583946E-18
   95.00150       -2.5621409E-18
   95.16300       -2.5571557E-18
   95.32450       -2.5467144E-18
   95.48600       -2.5386862E-18
   95.64750       -2.5394811E-18
   95.80900       -2.5490392E-18
   95.97050       -2.5607514E-18
   96.13200       -2.5664306E-18
   96.29350       -2.5625489E-18
   96.45500       -2.5529312E-18
   96.61650       -2.5457832E-18
   96.77800       -2.5473316E-18
   96.93950       -2.5569877E-18
   97.10100       -2.5678033E-18
   97.26250       -2.5718882E-18
   97.42400       -2.5665822E-18
   97.58550       -2.5565934E-18
   97.74700       -2.5504077E-18
   97.90850       -2.5537452E-18
   98.07000       -2.5651336E-18
   98.23150       -2.5770264E-18
   98.39300       -2.5815864E-18
   98.55450       -2.5766521E-18
   98.71600       -2.5672816E-18
   98.87750       -2.5617420E-18
   99.03900       -2.5650678E-18
   99.20050       -2.5751714E-18
   99.36200       -2.5844843E-18
   99.52350       -2.5858262E-18
   99.68500       -2.5779692E-18
   99.84650       -2.5666054E-18
   100.0080       -2.5599937E-18
   100.1695       -2.5626465E-18
   100.3310       -2.5719053E-18
   100.4925       -2.5800328E-18
   100.6540       -2.5802139E-18
   100.8155       -2.5718360E-18
   100.9770       -2.5609820E-18
   101.1385       -2.5557356E-18
   101.3000       -2.5599325E-18
   101.4615       -2.5701937E-18
   101.6230       -2.5785676E-18
   101.7845       -2.5787430E-18
   101.9460       -2.5709934E-18
   102.1075       -2.5619959E-18
   102.2690       -2.5596291E-18
   102.4305       -2.5667919E-18
   102.5920       -2.5790650E-18
   102.7535       -2.5880660E-18
   102.9150       -2.5878927E-18
   103.0765       -2.5796475E-18
   103.2380       -2.5705107E-18
   103.3995       -2.5681191E-18
   103.5610       -2.5746069E-18
   103.7225       -2.5849541E-18
   103.8840       -2.5909050E-18
   104.0455       -2.5874125E-18
   104.2070       -2.5766023E-18
   104.3685       -2.5661881E-18
   104.5300       -2.5635593E-18
   104.6915       -2.5701085E-18
   104.8530       -2.5801606E-18
   105.0145       -2.5853391E-18
   105.1760       -2.5810167E-18
   105.3375       -2.5699114E-18
   105.4990       -2.5600452E-18
   105.6605       -2.5586262E-18
   105.8220       -2.5665340E-18
   105.9835       -2.5776551E-18
   106.1450       -2.5836105E-18
   106.3065       -2.5802452E-18
   106.4680       -2.5708887E-18
   106.6295       -2.5638385E-18
   106.7910       -2.5659614E-18
   106.9525       -2.5773211E-18
   107.1140       -2.5909989E-18
   107.2755       -2.5982953E-18
   107.4370       -2.5953253E-18
   107.5985       -2.5859252E-18
   107.7600       -2.5786092E-18
   107.9215       -2.5799323E-18
   108.0830       -2.5893892E-18
   108.2445       -2.5998150E-18
   108.4060       -2.6029713E-18
   108.5675       -2.5959901E-18
   108.7290       -2.5836711E-18
   108.8905       -2.5748470E-18
   109.0520       -2.5756421E-18
   109.2135       -2.5848377E-18
   109.3750       -2.5949036E-18
   109.5365       -2.5978616E-18
   109.6980       -2.5914313E-18
   109.8595       -2.5807326E-18
   110.0210       -2.5742684E-18
   110.1825       -2.5773287E-18
   110.3440       -2.5879030E-18
   110.5055       -2.5982256E-18
   110.6670       -2.6007489E-18
   110.8285       -2.5939238E-18
   110.9900       -2.5833700E-18
   111.1515       -2.5775254E-18
   111.3130       -2.5811276E-18
   111.4745       -2.5915312E-18
   111.6360       -2.6007173E-18
   111.7975       -2.6014702E-18
   111.9590       -2.5929848E-18
   112.1205       -2.5815443E-18
   112.2820       -2.5757075E-18
   112.4435       -2.5796883E-18
   112.6050       -2.5900750E-18
   112.7665       -2.5984862E-18
   112.9280       -2.5981340E-18
   113.0895       -2.5891963E-18
   113.2510       -2.5787523E-18
   113.4125       -2.5752906E-18
   113.5740       -2.5820488E-18
   113.7355       -2.5944073E-18
   113.8970       -2.6034083E-18
   114.0585       -2.6026682E-18
   114.2200       -2.5932991E-18
   114.3815       -2.5829943E-18
   114.5430       -2.5800218E-18
   114.7045       -2.5868016E-18
   114.8660       -2.5980546E-18
   115.0275       -2.6049330E-18
   115.1890       -2.6019088E-18
   115.3505       -2.5911034E-18
   115.5120       -2.5807121E-18
   115.6735       -2.5787496E-18
   115.8350       -2.5869071E-18
   115.9965       -2.5992376E-18
   116.1580       -2.6066750E-18
   116.3195       -2.6039507E-18
   116.4810       -2.5936205E-18
   116.6425       -2.5841007E-18
   116.8040       -2.5831872E-18
   116.9655       -2.5920255E-18
   117.1270       -2.6041945E-18
   117.2885       -2.6106616E-18
   117.4500       -2.6068165E-18
   117.6115       -2.5961204E-18
   117.7730       -2.5874878E-18
   117.9345       -2.5883842E-18
   118.0960       -2.5989870E-18
   118.2575       -2.6119868E-18
   118.4190       -2.6181989E-18
   118.5805       -2.6136205E-18
   118.7420       -2.6024291E-18