  -27.90000        5.9552525E-18
  -27.73850        5.9586373E-18
  -27.57700        5.9630693E-18
  -27.41550        5.9660377E-18
  -27.25400        5.9670262E-18
  -27.09250        5.9677500E-18
  -26.93100        5.9702960E-18
  -26.76950        5.9749737E-18
  -26.60800        5.9799323E-18
  -26.44650        5.9828911E-18
  -26.28500        5.9833162E-18
  -26.12350        5.9829597E-18
  -25.96200        5.9842439E-18
  -25.80050        5.9880188E-18
  -25.63900        5.9927883E-18
  -25.47750        5.9961338E-18
  -25.31600        5.9969680E-18
  -25.15450        5.9965201E-18
  -24.99300        5.9971554E-18
  -24.83150        6.0001667E-18
  -24.67000        6.0046062E-18
  -24.50850        6.0082127E-18
  -24.34700        6.0095238E-18
  -24.18550        6.0091946E-18
  -24.02400        6.0093236E-18
  -23.86250        6.0114640E-18
  -23.70100        6.0151983E-18
  -23.53950        6.0185711E-18
  -23.37800        6.0199484E-18
  -23.21650        6.0195509E-18
  -23.05500        6.0192581E-18
  -22.89350        6.0208868E-18
  -22.73200        6.0245400E-18
  -22.57050        6.0285345E-18
  -22.40900        6.0309259E-18
  -22.24750        6.0312315E-18
  -22.08600        6.0307919E-18
  -21.92450        6.0314784E-18
  -21.76300        6.0339740E-18
  -21.60150        6.0371856E-18
  -21.44000        6.0393073E-18
  -21.27850        6.0395368E-18
  -21.11700        6.0388643E-18
  -20.95550        6.0392134E-18
  -20.79400        6.0417082E-18
  -20.63250        6.0456319E-18
  -20.47100        6.0490304E-18
  -20.30950        6.0504250E-18
  -20.14800        6.0500850E-18
  -19.98650        6.0497298E-18
  -19.82500        6.0509254E-18
  -19.66350        6.0536448E-18
  -19.50200        6.0563154E-18
  -19.34050        6.0573187E-18
  -19.17900        6.0565863E-18
  -19.01750        6.0557880E-18
  -18.85600        6.0568952E-18
  -18.69450        6.0603896E-18
  -18.53300        6.0647559E-18
  -18.37150        6.0677602E-18
  -18.21000        6.0683831E-18
  -18.04850        6.0676494E-18
  -17.88700        6.0675956E-18
  -17.72550        6.0693182E-18
  -17.56400        6.0719309E-18
  -17.40250        6.0734186E-18
  -17.24100        6.0726145E-18
  -17.07950        6.0704233E-18
  -16.91800        6.0691040E-18
  -16.75650        6.0702211E-18
  -16.59500        6.0731840E-18
  -16.43350        6.0757756E-18
  -16.27200        6.0762339E-18
  -16.11050        6.0749534E-18
  -15.94900        6.0741853E-18
  -15.78750        6.0759654E-18
  -15.62600        6.0801779E-18
  -15.46450        6.0845913E-18
  -15.30300        6.0868458E-18
  -15.14150        6.0865459E-18
  -14.98000        6.0855119E-18
  -14.81850        6.0859594E-18
  -14.65700        6.0883550E-18
  -14.49550        6.0910119E-18
  -14.33400        6.0918010E-18
  -14.17250        6.0903439E-18
  -14.01100        6.0885456E-18
  -13.84950        6.0888868E-18
  -13.68800        6.0920702E-18
  -13.52650        6.0962413E-18
  -13.36500        6.0985768E-18
  -13.20350        6.0978038E-18
  -13.04200        6.0953074E-18
  -12.88050        6.0938296E-18
  -12.71900        6.0949761E-18
  -12.55750        6.0978555E-18
  -12.39600        6.1000658E-18
  -12.23450        6.1000356E-18
  -12.07300        6.0984809E-18
  -11.91150        6.0976181E-18
  -11.75000        6.0989615E-18
  -11.58850        6.1018318E-18
  -11.42700        6.1040106E-18
  -11.26550        6.1039093E-18
  -11.10400        6.1021544E-18
  -10.94250        6.1010687E-18
  -10.78100        6.1025121E-18
  -10.61950        6.1061141E-18
  -10.45800        6.1095585E-18
  -10.29650        6.1106748E-18
  -10.13500        6.1094150E-18
  -9.973500        6.1079302E-18
  -9.812000        6.1087019E-18
  -9.650500        6.1124437E-18
  -9.489000        6.1176363E-18
  -9.327500        6.1220088E-18
  -9.166000        6.1245218E-18
  -9.004500        6.1260376E-18
  -8.843000        6.1281709E-18
  -8.681500        6.1315081E-18
  -8.520000        6.1349236E-18
  -8.358500        6.1366383E-18
  -8.197000        6.1359997E-18
  -8.035500        6.1342829E-18
  -7.874000        6.1337076E-18
  -7.712500        6.1355117E-18
  -7.551000        6.1388072E-18
  -7.389500        6.1412618E-18
  -7.228000        6.1410563E-18
  -7.066500        6.1384221E-18
  -6.905000        6.1354472E-18
  -6.743500        6.1343367E-18
  -6.582000        6.1356457E-18
  -6.420500        6.1379680E-18
  -6.259000        6.1392803E-18
  -6.097500        6.1386728E-18
  -5.936000        6.1369419E-18
  -5.774500        6.1355890E-18
  -5.613000        6.1352404E-18
  -5.451500        6.1350195E-18
  -5.290000        6.1335066E-18
  -5.128500        6.1303741E-18
  -4.967000        6.1271063E-18
  -4.805500        6.1259673E-18
  -4.644000        6.1280104E-18
  -4.482500        6.1319312E-18
  -4.321000        6.1349120E-18
  -4.159500        6.1348772E-18
  -3.998000        6.1322439E-18
  -3.836500        6.1296002E-18
  -3.675000        6.1295411E-18
  -3.513500        6.1325409E-18
  -3.352000        6.1367318E-18
  -3.190500        6.1397349E-18
  -3.029000        6.1408296E-18
  -2.867500        6.1414409E-18
  -2.706000        6.1435457E-18
  -2.544500        6.1475563E-18
  -2.383000        6.1517827E-18
  -2.221500        6.1540505E-18
  -2.060000        6.1539380E-18
  -1.898500        6.1534115E-18
  -1.737000        6.1550906E-18
  -1.575500        6.1596906E-18
  -1.414000        6.1650793E-18
  -1.252500        6.1680079E-18
  -1.091000        6.1670124E-18
 -0.9295000        6.1638443E-18
 -0.7680000        6.1620232E-18
 -0.6065000        6.1637690E-18
 -0.4450000        6.1681030E-18
 -0.2835000        6.1718332E-18
 -0.1220000        6.1724933E-18
  3.9500002E-02    6.1704725E-18
  0.2010000        6.1684045E-18
  0.3625000        6.1684935E-18
  0.5240000        6.1704005E-18
  0.6855000        6.1717389E-18
  0.8470000        6.1706536E-18
   1.008500        6.1679140E-18
   1.170000        6.1663941E-18
   1.331500        6.1683462E-18
   1.493000        6.1730735E-18
   1.654500        6.1773033E-18
   1.816000        6.1780445E-18
   1.977500        6.1753247E-18
   2.139000        6.1722625E-18
   2.300500        6.1723576E-18
   2.462000        6.1764691E-18
   2.623500        6.1821895E-18
   2.785000        6.1860868E-18
   2.946500        6.1866761E-18
   3.108000        6.1853812E-18
   3.269500        6.1847703E-18
   3.431000        6.1859197E-18
   3.592500        6.1874760E-18
   3.754000        6.1872841E-18
   3.915500        6.1849022E-18
   4.077000        6.1824620E-18
   4.238500        6.1829129E-18
   4.400000        6.1872212E-18
   4.561500        6.1931571E-18
   4.723000        6.1969104E-18
   4.884500        6.1961932E-18
   5.046000        6.1921347E-18
   5.207500        6.1883177E-18
   5.369000        6.1878544E-18
   5.530500        6.1910407E-18
   5.692000        6.1955096E-18
   5.853500        6.1985371E-18
   6.015000        6.1992964E-18
   6.176500        6.1990946E-18
   6.338000        6.1996054E-18
   6.499500        6.2009586E-18
   6.661000        6.2015819E-18
   6.822500        6.1999482E-18
   6.984000        6.1965018E-18
   7.145500        6.1937845E-18
   7.307000        6.1944260E-18
   7.468500        6.1986992E-18
   7.630000        6.2038947E-18
   7.791500        6.2062505E-18
   7.953000        6.2039406E-18
   8.114500        6.1985879E-18
   8.276000        6.1939793E-18
   8.437500        6.1930425E-18
   8.599000        6.1956514E-18
   8.760500        6.1990603E-18
   8.922000        6.2004805E-18
   9.083500        6.1994143E-18
   9.245000        6.1976884E-18
   9.406500        6.1973062E-18
   9.568000        6.1982831E-18
   9.729500        6.1986318E-18
   9.891000        6.1965618E-18
   10.05250        6.1927344E-18
   10.21400        6.1902107E-18
   10.37550        6.1918601E-18
   10.53700        6.1975130E-18
   10.69850        6.2036313E-18
   10.86000        6.2060760E-18
   11.02150        6.2036768E-18
   11.18300        6.1993601E-18
   11.34450        6.1976958E-18
   11.50600        6.2009735E-18
   11.66750        6.2073143E-18
   11.82900        6.2125168E-18
   11.99050        6.2139048E-18
   12.15200        6.2125921E-18
   12.31350        6.2121028E-18
   12.47500        6.2147568E-18
   12.63650        6.2193758E-18
   12.79800        6.2225377E-18
   12.95950        6.2221642E-18
   13.12100        6.2198667E-18
   13.28250        6.2196033E-18
   13.44400        6.2238083E-18
   13.60550        6.2307115E-18
   13.76700        6.2355981E-18
   13.92850        6.2350149E-18
   14.09000        6.2300386E-18
   14.25150        6.2254651E-18
   14.41300        6.2255486E-18
   14.57450        6.2302276E-18
   14.73600        6.2353416E-18
   14.89750        6.2366064E-18
   15.05900        6.2335909E-18
   15.22050        6.2299526E-18
   15.38200        6.2297838E-18
   15.54350        6.2336269E-18
   15.70500        6.2379795E-18
   15.86650        6.2387575E-18
   16.02800        6.2353313E-18
   16.18950        6.2312136E-18
   16.35100        6.2307185E-18
   16.51250        6.2347758E-18
   16.67400        6.2399370E-18
   16.83550        6.2415534E-18
   16.99700        6.2381342E-18
   17.15850        6.2327563E-18
   17.32000        6.2301999E-18
   17.48150        6.2325400E-18
   17.64300        6.2373347E-18
   17.80450        6.2400739E-18
   17.96600        6.2384911E-18
   18.12750        6.2346534E-18
   18.28900        6.2328824E-18
   18.45050        6.2355484E-18
   18.61200        6.2407601E-18
   18.77350        6.2441234E-18
   18.93500        6.2429008E-18
   19.09650        6.2386458E-18
   19.25800        6.2358181E-18
   19.41950        6.2377037E-18
   19.58100        6.2434033E-18
   19.74250        6.2486572E-18
   19.90400        6.2496825E-18
   20.06550        6.2464792E-18
   20.22700        6.2426328E-18
   20.38850        6.2419061E-18
   20.55000        6.2448426E-18
   20.71150        6.2484851E-18
   20.87300        6.2493516E-18
   21.03450        6.2468026E-18
   21.19600        6.2436321E-18
   21.35750        6.2433578E-18
   21.51900        6.2467877E-18
   21.68050        6.2511110E-18
   21.84200        6.2524287E-18
   22.00350        6.2494244E-18
   22.16500        6.2447686E-18
   22.32650        6.2428710E-18
   22.48800        6.2459449E-18
   22.64950        6.2519378E-18
   22.81100        6.2562515E-18
   22.97250        6.2557755E-18
   23.13400        6.2516197E-18
   23.29550        6.2480823E-18
   23.45700        6.2487726E-18
   23.61850        6.2534126E-18
   23.78000        6.2582206E-18
   23.94150        6.2594920E-18
   24.10300        6.2570357E-18
   24.26450        6.2542506E-18
   24.42600        6.2547568E-18
   24.58750        6.2587963E-18
   24.74900        6.2628673E-18
   24.91050        6.2630538E-18
   25.07200        6.2589378E-18
   25.23350        6.2542746E-18
   25.39500        6.2536232E-18
   25.55650        6.2579869E-18
   25.71800        6.2636453E-18
   25.87950        6.2654767E-18
   26.04100        6.2617932E-18
   26.20250        6.2561448E-18
   26.36400        6.2542365E-18
   26.52550        6.2587169E-18
   26.68700        6.2666694E-18
   26.84850        6.2722331E-18
   27.01000        6.2719316E-18
   27.17150        6.2677460E-18
   27.33300        6.2650432E-18
   27.49450        6.2673779E-18
   27.65600        6.2731636E-18
   27.81750        6.2773967E-18
   27.97900        6.2767094E-18
   28.14050        6.2728067E-18
   28.30200        6.2708525E-18
   28.46350        6.2743279E-18
   28.62500        6.2813804E-18
   28.78650        6.2863315E-18
   28.94800        6.2850399E-18
   29.10950        6.2790035E-18
   29.27100        6.2741964E-18
   29.43250        6.2756100E-18
   29.59400        6.2826311E-18
   29.75550        6.2896258E-18
   29.91700        6.2911602E-18
   30.07850        6.2869205E-18
   30.24000        6.2817039E-18
   30.40150        6.2806211E-18
   30.56300        6.2841747E-18
   30.72450        6.2879210E-18
   30.88600        6.2869536E-18
   31.04750        6.2807965E-18
   31.20900        6.2739763E-18
   31.37050        6.2717376E-18
   31.53200        6.2750467E-18
   31.69350        6.2796748E-18
   31.85500        6.2802141E-18
   32.01650        6.2751704E-18
   32.17800        6.2683201E-18
   32.33950        6.2651077E-18
   32.50100        6.2675765E-18
   32.66250        6.2726161E-18
   32.82400        6.2750885E-18
   32.98550        6.2727745E-18
   33.14700        6.2684256E-18
   33.30850        6.2670686E-18
   33.47000        6.2711825E-18
   33.63150        6.2783286E-18
   33.79300        6.2834153E-18
   33.95450        6.2834083E-18
   34.11600        6.2800689E-18
   34.27750        6.2782252E-18
   34.43900        6.2812526E-18
   34.60050        6.2879921E-18
   34.76200        6.2938882E-18
   34.92350        6.2951939E-18
   35.08500        6.2923195E-18
   35.24650        6.2892808E-18
   35.40800        6.2898648E-18
   35.56950        6.2941323E-18
   35.73100        6.2984712E-18
   35.89250        6.2990949E-18
   36.05400        6.2956774E-18
   36.21550        6.2917591E-18
   36.37700        6.2915295E-18
   36.53850        6.2959765E-18
   36.70000        6.3019462E-18
   36.86150        6.3049919E-18
   37.02300        6.3034045E-18
   37.18450        6.2997199E-18
   37.34600        6.2983112E-18
   37.50750        6.3012820E-18
   37.66900        6.3064788E-18
   37.83050        6.3094690E-18
   37.99200        6.3077022E-18
   38.15350        6.3029732E-18
   38.31500        6.2998539E-18
   38.47650        6.3014685E-18
   38.63800        6.3065321E-18
   38.79950        6.3104418E-18
   38.96100        6.3094868E-18
   39.12250        6.3042938E-18
   39.28400        6.2992781E-18
   39.44550        6.2985812E-18
   39.60700        6.3022705E-18
   39.76850        6.3063778E-18
   39.93000        6.3067554E-18
   40.09150        6.3030811E-18
   40.25300        6.2991826E-18
   40.41450        6.2993108E-18
   40.57600        6.3039182E-18
   40.73750        6.3090414E-18
   40.89900        6.3099864E-18
   41.06050        6.3058621E-18
   41.22200        6.3005805E-18
   41.38350        6.2992645E-18
   41.54500        6.3033665E-18
   41.70650        6.3091568E-18
   41.86800        6.3110957E-18
   42.02950        6.3069718E-18
   42.19100        6.2999846E-18
   42.35250        6.2957970E-18
   42.51400        6.2973562E-18
   42.67550        6.3023590E-18
   42.83700        6.3056958E-18
   42.99850        6.3044402E-18
   43.16000        6.3005698E-18
   43.32150        6.2988501E-18
   43.48300        6.3020194E-18
   43.64450        6.3080086E-18
   43.80600        6.3119129E-18
   43.96750        6.3107933E-18
   44.12900        6.3066343E-18
   44.29050        6.3045494E-18
   44.45200        6.3079201E-18
   44.61350        6.3151166E-18
   44.77500        6.3209337E-18
   44.93650        6.3213635E-18
   45.09800        6.3171850E-18
   45.25950        6.3130354E-18
   45.42100        6.3129299E-18
   45.58250        6.3165621E-18
   45.74400        6.3198286E-18
   45.90550        6.3189762E-18
   46.06700        6.3143452E-18
   46.22850        6.3101585E-18
   46.39000        6.3106295E-18
   46.55150        6.3161001E-18
   46.71300        6.3227961E-18
   46.87450        6.3262976E-18
   47.03600        6.3254067E-18
   47.19750        6.3228664E-18
   47.35900        6.3224764E-18
   47.52050        6.3254700E-18
   47.68200        6.3295645E-18
   47.84350        6.3313856E-18
   48.00500        6.3297928E-18
   48.16650        6.3268940E-18
   48.32800        6.3258641E-18
   48.48950        6.3277348E-18
   48.65100        6.3302602E-18
   48.81250        6.3299728E-18
   48.97400        6.3255304E-18
   49.13550        6.3192628E-18
   49.29700        6.3154470E-18
   49.45850        6.3167995E-18
   49.62000        6.3222332E-18
   49.78150        6.3277985E-18
   49.94300        6.3299219E-18
   50.10450        6.3281368E-18
   50.26600        6.3250667E-18
   50.42750        6.3238835E-18
   50.58900        6.3256052E-18
   50.75050        6.3285657E-18
   50.91200        6.3303247E-18
   51.07350        6.3300699E-18
   51.23500        6.3292510E-18
   51.39650        6.3299000E-18
   51.55800        6.3323253E-18
   51.71950        6.3344796E-18
   51.88100        6.3337356E-18
   52.04250        6.3295050E-18
   52.20400        6.3241953E-18
   52.36550        6.3214321E-18
   52.52700        6.3229773E-18
   52.68850        6.3271033E-18
   52.85000        6.3299785E-18
   53.01150        6.3289570E-18
   53.17300        6.3248612E-18
   53.33450        6.3212096E-18
   53.49600        6.3210748E-18
   53.65750        6.3244112E-18
   53.81900        6.3282675E-18
   53.98050        6.3296274E-18
   54.14200        6.3281819E-18
   54.30350        6.3264552E-18
   54.46500        6.3272216E-18
   54.62650        6.3307486E-18
   54.78800        6.3345549E-18
   54.94950        6.3359276E-18
   55.11100        6.3347286E-18
   55.27250        6.3336951E-18
   55.43400        6.3358069E-18
   55.59550        6.3412100E-18
   55.75700        6.3466793E-18
   55.91850        6.3483056E-18
   56.08000        6.3449877E-18
   56.24150        6.3394911E-18
   56.40300        6.3360604E-18
   56.56450        6.3367503E-18
   56.72600        6.3398480E-18
   56.88750        6.3417270E-18
   57.04900        6.3403001E-18
   57.21050        6.3368111E-18
   57.37200        6.3343891E-18
   57.53350        6.3349065E-18
   57.69500        6.3372540E-18
   57.85650        6.3386582E-18
   58.01800        6.3376713E-18
   58.17950        6.3358259E-18
   58.34100        6.3362523E-18
   58.50250        6.3405429E-18
   58.66400        6.3468733E-18
   58.82550        6.3512789E-18
   58.98700        6.3509947E-18
   59.14850        6.3468452E-18
   59.31000        6.3425070E-18
   59.47150        6.3413626E-18
   59.63300        6.3437842E-18
   59.79450        6.3471922E-18
   59.95600        6.3486191E-18
   60.11750        6.3472861E-18
   60.27900        6.3448984E-18
   60.44050        6.3436109E-18
   60.60200        6.3438202E-18
   60.76350        6.3439335E-18
   60.92500        6.3422485E-18
   61.08650        6.3389899E-18
   61.24800        6.3364434E-18
   61.40950        6.3369550E-18
   61.57100        6.3406632E-18
   61.73250        6.3451180E-18
   61.89400        6.3472331E-18
   62.05550        6.3458654E-18
   62.21700        6.3427519E-18
   62.37850        6.3410111E-18
   62.54000        6.3425434E-18
   62.70150        6.3465978E-18
   62.86300        6.3506225E-18
   63.02450        6.3525085E-18
   63.18600        6.3521941E-18
   63.34750        6.3513239E-18
   63.50900        6.3514704E-18
   63.67050        6.3526665E-18
   63.83200        6.3535859E-18
   63.99350        6.3530784E-18
   64.15500        6.3515340E-18
   64.31650        6.3507089E-18
   64.47800        6.3521222E-18
   64.63950        6.3554917E-18
   64.80100        6.3586801E-18
   64.96250        6.3593116E-18
   65.12400        6.3567076E-18
   65.28550        6.3524584E-18
   65.44700        6.3491323E-18
   65.60850        6.3482137E-18
   65.77000        6.3490277E-18
   65.93150        6.3495285E-18
   66.09300        6.3481943E-18
   66.25450        6.3453273E-18
   66.41600        6.3426439E-18
   66.57750        6.3416161E-18
   66.73900        6.3421414E-18
   66.90050        6.3427994E-18
   67.06200        6.3424222E-18
   67.22350        6.3414400E-18
   67.38500        6.3416335E-18
   67.54650        6.3444199E-18
   67.70800        6.3492601E-18
   67.86950        6.3537794E-18
   68.03100        6.3556625E-18
   68.19250        6.3546964E-18
   68.35400        6.3530697E-18
   68.51550        6.3535404E-18
   68.67700        6.3570274E-18
   68.83850        6.3617716E-18
   69.00000        6.3648368E-18
   69.16150        6.3646159E-18
   69.32300        6.3621120E-18
   69.48450        6.3598848E-18
   69.64600        6.3597058E-18
   69.80750        6.3611244E-18
   69.96900        6.3622055E-18
   70.13050        6.3616070E-18
   70.29200        6.3599150E-18
   70.45350        6.3589212E-18
   70.61500        6.3595957E-18
   70.77650        6.3608572E-18
   70.93800        6.3604651E-18
   71.09950        6.3573020E-18
   71.26100        6.3528153E-18
   71.42250        6.3500919E-18
   71.58400        6.3512540E-18
   71.74550        6.3555074E-18
   71.90700        6.3596934E-18
   72.06850        6.3609196E-18
   72.23000        6.3589489E-18
   72.39150        6.3562415E-18
   72.55300        6.3556993E-18
   72.71450        6.3582003E-18
   72.87600        6.3621153E-18
   73.03750        6.3650452E-18
   73.19900        6.3660010E-18
   73.36050        6.3659721E-18
   73.52200        6.3664857E-18
   73.68350        6.3677596E-18
   73.84500        6.3683564E-18
   74.00650        6.3667203E-18
   74.16800        6.3630525E-18
   74.32950        6.3595945E-18
   74.49100        6.3588749E-18
   74.65250        6.3614718E-18
   74.81400        6.3653455E-18
   74.97550        6.3674283E-18
   75.13700        6.3661177E-18
   75.29850        6.3624996E-18
   75.46000        6.3592971E-18
   75.62150        6.3585597E-18
   75.78300        6.3601355E-18
   75.94450        6.3621488E-18
   76.10600        6.3628693E-18
   76.26750        6.3621724E-18
   76.42900        6.3613229E-18
   76.59050        6.3614693E-18
   76.75200        6.3623887E-18
   76.91350        6.3627200E-18
   77.07500        6.3614271E-18
   77.23650        6.3590366E-18
   77.39800        6.3573954E-18
   77.55950        6.3580857E-18
   77.72100        6.3609027E-18
   77.88250        6.3638239E-18
   78.04400        6.3645626E-18
   78.20550        6.3623991E-18
   78.36700        6.3587363E-18
   78.52850        6.3559123E-18
   78.69000        6.3553320E-18
   78.85150        6.3565269E-18
   79.01300        6.3578645E-18
   79.17450        6.3581651E-18
   79.33600        6.3577276E-18
   79.49750        6.3578458E-18
   79.65900        6.3593526E-18
   79.82050        6.3616124E-18
   79.98200        6.3629789E-18
   80.14350        6.3623383E-18
   80.30500        6.3602976E-18
   80.46650        6.3588550E-18
   80.62800        6.3597599E-18
   80.78950        6.3629880E-18
   80.95100        6.3667347E-18
   81.11250        6.3689532E-18
   81.27400        6.3691005E-18
   81.43550        6.3684987E-18
   81.59700        6.3690066E-18
   81.75850        6.3712383E-18
   81.92000        6.3739792E-18
   82.08150        6.3753457E-18
   82.24300        6.3746128E-18
   82.40450        6.3729617E-18
   82.56600        6.3724183E-18
   82.72750        6.3739337E-18
   82.88900        6.3764115E-18
   83.05050        6.3776225E-18
   83.21200        6.3761857E-18
   83.37350        6.3727905E-18
   83.53500        6.3695198E-18
   83.69650        6.3679193E-18
   83.85800        6.3676343E-18
   84.01950        6.3669039E-18
   84.18100        6.3644186E-18
   84.34250        6.3607546E-18
   84.50400        6.3579579E-18
   84.66550        6.3576502E-18
   84.82700        6.3594423E-18
   84.98850        6.3611984E-18
   85.15000        6.3609643E-18
   85.31150        6.3587599E-18
   85.47300        6.3565509E-18
   85.63450        6.3564123E-18
   85.79600        6.3585796E-18
   85.95750        6.3612249E-18
   86.11900        6.3621393E-18
   86.28050        6.3607422E-18
   86.44200        6.3585200E-18
   86.60350        6.3575228E-18
   86.76500        6.3583901E-18
   86.92650        6.3597649E-18
   87.08800        6.3596557E-18
   87.24950        6.3574178E-18
   87.41100        6.3544532E-18
   87.57250        6.3529535E-18
   87.73400        6.3538849E-18
   87.89550        6.3561146E-18
   88.05700        6.3574988E-18
   88.21850        6.3568975E-18
   88.38000        6.3552233E-18
   88.54150        6.3545677E-18
   88.70300        6.3562510E-18
   88.86450        6.3596164E-18
   89.02600        6.3626662E-18
   89.18750        6.3638921E-18
   89.34900        6.3635844E-18
   89.51050        6.3634463E-18
   89.67200        6.3649331E-18
   89.83350        6.3679118E-18
   89.99500        6.3708528E-18
   90.15650        6.3723232E-18
   90.31800        6.3723223E-18
   90.47950        6.3722152E-18
   90.64100        6.3733456E-18
   90.80250        6.3756703E-18
   90.96400        6.3777044E-18
   91.12550        6.3778388E-18
   91.28700        6.3758172E-18
   91.44850        6.3730287E-18
   91.61000        6.3713603E-18
   91.77150        6.3716399E-18
   91.93300        6.3730565E-18
   92.09450        6.3740425E-18
   92.25600        6.3737662E-18
   92.41750        6.3728786E-18
   92.57900        6.3728476E-18
   92.74050        6.3745040E-18
   92.90200        6.3771547E-18
   93.06350        6.3790767E-18
   93.22500        6.3789820E-18
   93.38650        6.3771489E-18
   93.54800        6.3752055E-18
   93.70950        6.3747315E-18
   93.87100        6.3758995E-18
   94.03250        6.3773173E-18
   94.19400        6.3771928E-18
   94.35550        6.3747849E-18
   94.51700        6.3708785E-18
   94.67850        6.3669605E-18
   94.84000        6.3638967E-18
   95.00150        6.3613767E-18
   95.16300        6.3585783E-18
   95.32450        6.3553275E-18
   95.48600        6.3525548E-18
   95.64750        6.3515117E-18
   95.80900        6.3524572E-18
   95.97050        6.3541202E-18
   96.13200        6.3545979E-18
   96.29350        6.3529948E-18
   96.45500        6.3503173E-18
   96.61650        6.3487254E-18
   96.77800        6.3497027E-18
   96.93950        6.3527504E-18
   97.10100        6.3558052E-18
   97.26250        6.3570530E-18
   97.42400        6.3565439E-18
   97.58550        6.3561419E-18
   97.74700        6.3578591E-18
   97.90850        6.3620591E-18
   98.07000        6.3671458E-18
   98.23150        6.3709538E-18
   98.39300        6.3725494E-18
   98.55450        6.3727909E-18
   98.71600        6.3732533E-18
   98.87750        6.3746202E-18
   99.03900        6.3761220E-18
   99.20050        6.3764922E-18
   99.36200        6.3754263E-18
   99.52350        6.3740110E-18
   99.68500        6.3736433E-18
   99.84650        6.3744962E-18
   100.0080        6.3751087E-18
   100.1695        6.3736537E-18
   100.3310        6.3697763E-18
   100.4925        6.3652574E-18
   100.6540        6.3627415E-18
   100.8155        6.3635716E-18
   100.9770        6.3666499E-18
   101.1385        6.3693585E-18
   101.3000        6.3697469E-18
   101.4615        6.3680471E-18
   101.6230        6.3662248E-18
   101.7845        6.3660701E-18
   101.9460        6.3676136E-18
   102.1075        6.3692787E-18
   102.2690        6.3695095E-18
   102.4305        6.3682749E-18
   102.5920        6.3670296E-18
   102.7535        6.3672389E-18
   102.9150        6.3689309E-18
   103.0765        6.3706742E-18
   103.2380        6.3709732E-18
   103.3995        6.3696993E-18
   103.5610        6.3681777E-18
   103.7225        6.3678452E-18
   103.8840        6.3687981E-18
   104.0455        6.3696551E-18
   104.2070        6.3689048E-18
   104.3685        6.3664684E-18
   104.5300        6.3639484E-18
   104.6915        6.3632775E-18
   104.8530        6.3649559E-18
   105.0145        6.3675222E-18
   105.1760        6.3687750E-18
   105.3375        6.3676876E-18
   105.4990        6.3653124E-18
   105.6605        6.3638702E-18
   105.8220        6.3648508E-18
   105.9835        6.3677795E-18
   106.1450        6.3706787E-18
   106.3065        6.3717280E-18
   106.4680        6.3706324E-18
   106.6295        6.3685673E-18
   106.7910        6.3669229E-18
   106.9525        6.3661023E-18
   107.1140        6.3654592E-18
   107.2755        6.3642867E-18
   107.4370        6.3627564E-18
   107.5985        6.3618151E-18
   107.7600        6.3621319E-18
   107.9215        6.3631758E-18
   108.0830        6.3634595E-18
   108.2445        6.3618697E-18
   108.4060        6.3589150E-18
   108.5675        6.3566427E-18
   108.7290        6.3571254E-18
   108.8905        6.3607104E-18
   109.0520        6.3655419E-18
   109.2135        6.3688536E-18
   109.3750        6.3690066E-18
   109.5365        6.3666499E-18
   109.6980        6.3640745E-18
   109.8595        6.3633797E-18
   110.0210        6.3649943E-18
   110.1825        6.3676972E-18
   110.3440        6.3699177E-18
   110.5055        6.3710195E-18
   110.6670        6.3714650E-18
   110.8285        6.3718732E-18
   110.9900        6.3720837E-18
   111.1515        6.3712536E-18
   111.3130        6.3689247E-18
   111.4745        6.3659427E-18
   111.6360        6.3641581E-18
   111.7975        6.3649633E-18
   111.9590        6.3679515E-18
   112.1205        6.3710026E-18
   112.2820        6.3718963E-18
   112.4435        6.3701253E-18
   112.6050        6.3673026E-18
   112.7665        6.3657607E-18
   112.9280        6.3665639E-18
   113.0895        6.3686918E-18
   113.2510        6.3701105E-18
   113.4125        6.3697080E-18
   113.5740        6.3682857E-18
   113.7355        6.3676943E-18
   113.8970        6.3689491E-18
   114.0585        6.3711448E-18
   114.2200        6.3722152E-18
   114.3815        6.3708537E-18
   114.5430        6.3677567E-18
   114.7045        6.3650026E-18
   114.8660        6.3641308E-18
   115.0275        6.3647590E-18
   115.1890        6.3650378E-18
   115.3505        6.3634938E-18
   115.5120        6.3604779E-18
   115.6735        6.3578078E-18
   115.8350        6.3569719E-18
   115.9965        6.3576432E-18
   116.1580        6.3580030E-18
   116.3195        6.3565691E-18
   116.4810        6.3537608E-18
   116.6425        6.3516130E-18
   116.8040        6.3518546E-18
   116.9655        6.3541694E-18
   117.1270        6.3563391E-18
   117.2885        6.3562279E-18
   117.4500        6.3537815E-18
   117.6115        6.3511750E-18
   117.7730        6.3509430E-18
   117.9345        6.3537935E-18
   118.0960        6.3580791E-18
   118.2575        6.3613217E-18
   118.4190        6.3623205E-18
   118.5805        6.3619259E-18
   118.7420        6.3619139E-18