  -27.90000        9.2779961E-18
  -27.73850        9.3040481E-18
  -27.57700        9.3471302E-18
  -27.41550        9.3933770E-18
  -27.25400        9.4295554E-18
  -27.09250        9.4482240E-18
  -26.93100        9.4504732E-18
  -26.76950        9.4451296E-18
  -26.60800        9.4447805E-18
  -26.44650        9.4602711E-18
  -26.28500        9.4959639E-18
  -26.12350        9.5477330E-18
  -25.96200        9.6045058E-18
  -25.80050        9.6527221E-18
  -25.63900        9.6818521E-18
  -25.47750        9.6887045E-18
  -25.31600        9.6787518E-18
  -25.15450        9.6639271E-18
  -24.99300        9.6578010E-18
  -24.83150        9.6701061E-18
  -24.67000        9.7028484E-18
  -24.50850        9.7495891E-18
  -24.34700        9.7981851E-18
  -24.18550        9.8358450E-18
  -24.02400        9.8544111E-18
  -23.86250        9.8536956E-18
  -23.70100        9.8414930E-18
  -23.53950        9.8302963E-18
  -23.37800        9.8320764E-18
  -23.21650        9.8533126E-18
  -23.05500        9.8923133E-18
  -22.89350        9.9399416E-18
  -22.73200        9.9834198E-18
  -22.57050        1.0011636E-17
  -22.40900        1.0019753E-17
  -22.24750        1.0011202E-17
  -22.08600        9.9962585E-18
  -21.92450        9.9877625E-18
  -21.76300        9.9957953E-18
  -21.60150        1.0023488E-17
  -21.44000        1.0065719E-17
  -21.27850        1.0111233E-17
  -21.11700        1.0147307E-17
  -20.95550        1.0165012E-17
  -20.79400        1.0162900E-17
  -20.63250        1.0147583E-17
  -20.47100        1.0130975E-17
  -20.30950        1.0125352E-17
  -20.14800        1.0138281E-17
  -19.98650        1.0169530E-17
  -19.82500        1.0211232E-17
  -19.66350        1.0251235E-17
  -19.50200        1.0278225E-17
  -19.34050        1.0286500E-17
  -19.17900        1.0278401E-17
  -19.01750        1.0263369E-17
  -18.85600        1.0254031E-17
  -18.69450        1.0260898E-17
  -18.53300        1.0287917E-17
  -18.37150        1.0330697E-17
  -18.21000        1.0378194E-17
  -18.04850        1.0417160E-17
  -17.88700        1.0437541E-17
  -17.72550        1.0436578E-17
  -17.56400        1.0419940E-17
  -17.40250        1.0399383E-17
  -17.24100        1.0387916E-17
  -17.07950        1.0394465E-17
  -16.91800        1.0420226E-17
  -16.75650        1.0458245E-17
  -16.59500        1.0496383E-17
  -16.43350        1.0522461E-17
  -16.27200        1.0529459E-17
  -16.11050        1.0518578E-17
  -15.94900        1.0498890E-17
  -15.78750        1.0483683E-17
  -15.62600        1.0484979E-17
  -15.46450        1.0508500E-17
  -15.30300        1.0551166E-17
  -15.14150        1.0602182E-17
  -14.98000        1.0647305E-17
  -14.81850        1.0674546E-17
  -14.65700        1.0678979E-17
  -14.49550        1.0664678E-17
  -14.33400        1.0642971E-17
  -14.17250        1.0627732E-17
  -14.01100        1.0629641E-17
  -13.84950        1.0651786E-17
  -13.68800        1.0688429E-17
  -13.52650        1.0727458E-17
  -13.36500        1.0755495E-17
  -13.20350        1.0763574E-17
  -13.04200        1.0751010E-17
  -12.88050        1.0725866E-17
  -12.71900        1.0701792E-17
  -12.55750        1.0692539E-17
  -12.39600        1.0706363E-17
  -12.23450        1.0742637E-17
  -12.07300        1.0792054E-17
  -11.91150        1.0840352E-17
  -11.75000        1.0874050E-17
  -11.58850        1.0885852E-17
  -11.42700        1.0877504E-17
  -11.26550        1.0858933E-17
  -11.10400        1.0844024E-17
  -10.94250        1.0844786E-17
  -10.78100        1.0866299E-17
  -10.61950        1.0904549E-17
  -10.45800        1.0948027E-17
  -10.29650        1.0982453E-17
  -10.13500        1.0996683E-17
  -9.973500        1.0987347E-17
  -9.812000        1.0960314E-17
  -9.650500        1.0928370E-17
  -9.489000        1.0906024E-17
  -9.327500        1.0903614E-17
  -9.166000        1.0923107E-17
  -9.004500        1.0957367E-17
  -8.843000        1.0993174E-17
  -8.681500        1.1016776E-17
  -8.520000        1.1019641E-17
  -8.358500        1.1002053E-17
  -8.197000        1.0973031E-17
  -8.035500        1.0946620E-17
  -7.874000        1.0936100E-17
  -7.712500        1.0948493E-17
  -7.551000        1.0981670E-17
  -7.389500        1.1025230E-17
  -7.228000        1.1064791E-17
  -7.066500        1.1087917E-17
  -6.905000        1.1089216E-17
  -6.743500        1.1072516E-17
  -6.582000        1.1049210E-17
  -6.420500        1.1033435E-17
  -6.259000        1.1036119E-17
  -6.097500        1.1060325E-17
  -5.936000        1.1099864E-17
  -5.774500        1.1141767E-17
  -5.613000        1.1171609E-17
  -5.451500        1.1179487E-17
  -5.290000        1.1164195E-17
  -5.128500        1.1133828E-17
  -4.967000        1.1102566E-17
  -4.805500        1.1084929E-17
  -4.644000        1.1089862E-17
  -4.482500        1.1117116E-17
  -4.321000        1.1157425E-17
  -4.159500        1.1196450E-17
  -3.998000        1.1220869E-17
  -3.836500        1.1224078E-17
  -3.675000        1.1209095E-17
  -3.513500        1.1187394E-17
  -3.352000        1.1174124E-17
  -3.190500        1.1181666E-17
  -3.029000        1.1214238E-17
  -2.867500        1.1265839E-17
  -2.706000        1.1322452E-17
  -2.544500        1.1367632E-17
  -2.383000        1.1389188E-17
  -2.221500        1.1384186E-17
  -2.060000        1.1360140E-17
  -1.898500        1.1331877E-17
  -1.737000        1.1315337E-17
  -1.575500        1.1320884E-17
  -1.414000        1.1348954E-17
  -1.252500        1.1389872E-17
  -1.091000        1.1427961E-17
 -0.9295000        1.1448233E-17
 -0.7680000        1.1442839E-17
 -0.6065000        1.1414576E-17
 -0.4450000        1.1375949E-17
 -0.2835000        1.1344117E-17
 -0.1220000        1.1333828E-17
  3.9500002E-02    1.1351248E-17
  0.2010000        1.1391268E-17
  0.3625000        1.1439476E-17
  0.5240000        1.1478024E-17
  0.6855000        1.1493002E-17
  0.8470000        1.1480245E-17
   1.008500        1.1447110E-17
   1.170000        1.1409434E-17
   1.331500        1.1384901E-17
   1.493000        1.1385607E-17
   1.654500        1.1412932E-17
   1.816000        1.1456911E-17
   1.977500        1.1500409E-17
   2.139000        1.1526331E-17
   2.300500        1.1524896E-17
   2.462000        1.1497883E-17
   2.623500        1.1458046E-17
   2.785000        1.1423890E-17
   2.946500        1.1411958E-17
   3.108000        1.1429875E-17
   3.269500        1.1473076E-17
   3.431000        1.1526670E-17
   3.592500        1.1571666E-17
   3.754000        1.1592946E-17
   3.915500        1.1585598E-17
   4.077000        1.1556930E-17
   4.238500        1.1523326E-17
   4.400000        1.1503289E-17
   4.561500        1.1509643E-17
   4.723000        1.1544145E-17
   4.884500        1.1596769E-17
   5.046000        1.1649915E-17
   5.207500        1.1685782E-17
   5.369000        1.1693789E-17
   5.530500        1.1674960E-17
   5.692000        1.1641427E-17
   5.853500        1.1611257E-17
   6.015000        1.1600779E-17
   6.176500        1.1617673E-17
   6.338000        1.1657726E-17
   6.499500        1.1706635E-17
   6.661000        1.1746077E-17
   6.822500        1.1761459E-17
   6.984000        1.1748057E-17
   7.145500        1.1712989E-17
   7.307000        1.1672227E-17
   7.468500        1.1643920E-17
   7.630000        1.1640897E-17
   7.791500        1.1665430E-17
   7.953000        1.1708472E-17
   8.114500        1.1753610E-17
   8.276000        1.1784077E-17
   8.437500        1.1789825E-17
   8.599000        1.1771704E-17
   8.760500        1.1740975E-17
   8.922000        1.1714409E-17
   9.083500        1.1707061E-17
   9.245000        1.1725814E-17
   9.406500        1.1766417E-17
   9.568000        1.1815241E-17
   9.729500        1.1854992E-17
   9.891000        1.1871916E-17
   10.05250        1.1861502E-17
   10.21400        1.1830292E-17
   10.37550        1.1793115E-17
   10.53700        1.1766934E-17
   10.69850        1.1763900E-17
   10.86000        1.1786489E-17
   11.02150        1.1826689E-17
   11.18300        1.1869545E-17
   11.34450        1.1899536E-17
   11.50600        1.1907109E-17
   11.66750        1.1892676E-17
   11.82900        1.1866375E-17
   11.99050        1.1843743E-17
   12.15200        1.1839100E-17
   12.31350        1.1859406E-17
   12.47500        1.1901194E-17
   12.63650        1.1951843E-17
   12.79800        1.1994671E-17
   12.95950        1.2015723E-17
   13.12100        1.2009434E-17
   13.28250        1.1980843E-17
   13.44400        1.1943474E-17
   13.60550        1.1913771E-17
   13.76700        1.1904405E-17
   13.92850        1.1919171E-17
   14.09000        1.1951560E-17
   14.25150        1.1987606E-17
   14.41300        1.2011836E-17
   14.57450        1.2013882E-17
   14.73600        1.1993003E-17
   14.89750        1.1958582E-17
   15.05900        1.1926345E-17
   15.22050        1.1911870E-17
   15.38200        1.1924074E-17
   15.54350        1.1961468E-17
   15.70500        1.2012697E-17
   15.86650        1.2061149E-17
   16.02800        1.2091720E-17
   16.18950        1.2096915E-17
   16.35100        1.2079847E-17
   16.51250        1.2052902E-17
   16.67400        1.2032610E-17
   16.83550        1.2032786E-17
   16.99700        1.2058709E-17
   17.15850        1.2104772E-17
   17.32000        1.2156614E-17
   17.48150        1.2196953E-17
   17.64300        1.2212723E-17
   17.80450        1.2200524E-17
   17.96600        1.2168072E-17
   18.12750        1.2131011E-17
   18.28900        1.2106418E-17
   18.45050        1.2105739E-17
   18.61200        1.2130086E-17
   18.77350        1.2169854E-17
   18.93500        1.2208781E-17
   19.09650        1.2230791E-17
   19.25800        1.2226816E-17
   19.41950        1.2198747E-17
   19.58100        1.2158875E-17
   19.74250        1.2124946E-17
   19.90400        1.2112841E-17
   20.06550        1.2129939E-17
   20.22700        1.2171972E-17
   20.38850        1.2224747E-17
   20.55000        1.2270044E-17
   20.71150        1.2293170E-17
   20.87300        1.2288958E-17
   21.03450        1.2263701E-17
   21.19600        1.2232250E-17
   21.35750        1.2211577E-17
   21.51900        1.2213548E-17
   21.68050        1.2239930E-17
   21.84200        1.2281687E-17
   22.00350        1.2322818E-17
   22.16500        1.2347112E-17
   22.32650        1.2345015E-17
   22.48800        1.2317733E-17
   22.64950        1.2276881E-17
   22.81100        1.2239773E-17
   22.97250        1.2222354E-17
   23.13400        1.2232688E-17
   23.29550        1.2267757E-17
   23.45700        1.2314870E-17
   23.61850        1.2357074E-17
   23.78000        1.2380238E-17
   23.94150        1.2378841E-17
   24.10300        1.2358053E-17
   24.26450        1.2331303E-17
   24.42600        1.2314435E-17
   24.58750        1.2318939E-17
   24.74900        1.2347076E-17
   24.91050        1.2390900E-17
   25.07200        1.2435536E-17
   25.23350        1.2465356E-17
   25.39500        1.2470486E-17
   25.55650        1.2450994E-17
   25.71800        1.2416963E-17
   25.87950        1.2384406E-17
   26.04100        1.2368675E-17
   26.20250        1.2378090E-17
   26.36400        1.2410530E-17
   26.52550        1.2454396E-17
   26.68700        1.2493582E-17
   26.84850        1.2514277E-17
   27.01000        1.2510716E-17
   27.17150        1.2487460E-17
   27.33300        1.2457329E-17
   27.49450        1.2435928E-17
   27.65600        1.2435080E-17
   27.81750        1.2457845E-17
   27.97900        1.2497177E-17
   28.14050        1.2538735E-17
   28.30200        1.2566788E-17
   28.46350        1.2570826E-17
   28.62500        1.2550106E-17
   28.78650        1.2514198E-17
   28.94800        1.2479154E-17
   29.10950        1.2460870E-17
   29.27100        1.2468440E-17
   29.43250        1.2500367E-17
   29.59400        1.2545230E-17
   29.75550        1.2586479E-17
   29.91700        1.2609314E-17
   30.07850        1.2606777E-17
   30.24000        1.2582597E-17
   30.40150        1.2549672E-17
   30.56300        1.2524796E-17
   30.72450        1.2521709E-17
   30.88600        1.2545276E-17
   31.04750        1.2589213E-17
   31.20900        1.2638477E-17
   31.37050        1.2675460E-17
   31.53200        1.2687459E-17
   31.69350        1.2672203E-17
   31.85500        1.2638957E-17
   32.01650        1.2604682E-17
   32.17800        1.2586856E-17
   32.33950        1.2596062E-17
   32.50100        1.2631497E-17
   32.66250        1.2681236E-17
   32.82400        1.2727115E-17
   32.98550        1.2752195E-17
   33.14700        1.2747762E-17
   33.30850        1.2717002E-17
   33.47000        1.2673799E-17
   33.63150        1.2637074E-17
   33.79300        1.2622946E-17
   33.95450        1.2637985E-17
   34.11600        1.2676467E-17
   34.27750        1.2722850E-17
   34.43900        1.2758452E-17
   34.60050        1.2769457E-17
   34.76200        1.2752820E-17
   34.92350        1.2717570E-17
   35.08500        1.2681000E-17
   35.24650        1.2661386E-17
   35.40800        1.2670303E-17
   35.56950        1.2707709E-17
   35.73100        1.2761811E-17
   35.89250        1.2813814E-17
   36.05400        1.2845574E-17
   36.21550        1.2847078E-17
   36.37700        1.2820576E-17
   36.53850        1.2779658E-17
   36.70000        1.2743597E-17
   36.86150        1.2729308E-17
   37.02300        1.2744302E-17
   37.18450        1.2783626E-17
   37.34600        1.2832066E-17
   37.50750        1.2870699E-17
   37.66900        1.2885003E-17
   37.83050        1.2871102E-17
   37.99200        1.2837450E-17
   38.15350        1.2801289E-17
   38.31500        1.2781326E-17
   38.47650        1.2789789E-17
   38.63800        1.2827193E-17
   38.79950        1.2882032E-17
   38.96100        1.2935497E-17
   39.12250        1.2969242E-17
   39.28400        1.2972940E-17
   39.44550        1.2948507E-17
   39.60700        1.2909232E-17
   39.76850        1.2874163E-17
   39.93000        1.2860082E-17
   40.09150        1.2874434E-17
   40.25300        1.2912225E-17
   40.41450        1.2958238E-17
   40.57600        1.2993648E-17
   40.73750        1.3004166E-17
   40.89900        1.2986195E-17
   41.06050        1.2948338E-17
   41.22200        1.2907685E-17
   41.38350        1.2882519E-17
   41.54500        1.2884605E-17
   41.70650        1.2914272E-17
   41.86800        1.2960313E-17
   42.02950        1.3004676E-17
   42.19100        1.3030009E-17
   42.35250        1.3026950E-17
   42.51400        1.2998106E-17
   42.67550        1.2957004E-17
   42.83700        1.2922378E-17
   42.99850        1.2910174E-17
   43.16000        1.2926718E-17
   43.32150        1.2966059E-17
   43.48300        1.3012635E-17
   43.64450        1.3048076E-17
   43.80600        1.3059118E-17
   43.96750        1.3043203E-17
   44.12900        1.3009433E-17
   44.29050        1.2974573E-17
   44.45200        1.2955897E-17
   44.61350        1.2963882E-17
   44.77500        1.2997770E-17
   44.93650        1.3045844E-17
   45.09800        1.3090309E-17
   45.25950        1.3114797E-17
   45.42100        1.3111333E-17
   45.58250        1.3083775E-17
   45.74400        1.3046186E-17
   45.90550        1.3016822E-17
   46.06700        1.3010346E-17
   46.22850        1.3031671E-17
   46.39000        1.3074045E-17
   46.55150        1.3122123E-17
   46.71300        1.3158551E-17
   46.87450        1.3171247E-17
   47.03600        1.3158309E-17
   47.19750        1.3128630E-17
   47.35900        1.3098053E-17
   47.52050        1.3082679E-17
   47.68200        1.3092104E-17
   47.84350        1.3125344E-17
   48.00500        1.3171184E-17
   48.16650        1.3212812E-17
   48.32800        1.3234848E-17
   48.48950        1.3229787E-17
   48.65100        1.3201139E-17
   48.81250        1.3161937E-17
   48.97400        1.3129280E-17
   49.13550        1.3117244E-17
   49.29700        1.3131144E-17
   49.45850        1.3165474E-17
   49.62000        1.3206343E-17
   49.78150        1.3237337E-17
   49.94300        1.3246373E-17
   50.10450        1.3230727E-17
   50.26600        1.3198171E-17
   50.42750        1.3163724E-17
   50.58900        1.3143380E-17
   50.75050        1.3147388E-17
   50.91200        1.3175918E-17
   51.07350        1.3218946E-17
   51.23500        1.3260423E-17
   51.39650        1.3284998E-17
   51.55800        1.3284465E-17
   51.71950        1.3261215E-17
   51.88100        1.3227223E-17
   52.04250        1.3198998E-17
   52.20400        1.3190624E-17
   52.36550        1.3207848E-17
   52.52700        1.3245727E-17
   52.68850        1.3290780E-17
   52.85000        1.3326718E-17
   53.01150        1.3341271E-17
   53.17300        1.3331234E-17
   53.33450        1.3303668E-17
   53.49600        1.3272799E-17
   53.65750        1.3253965E-17
   53.81900        1.3257148E-17
   53.98050        1.3282765E-17
   54.14200        1.3321496E-17
   54.30350        1.3358233E-17
   54.46500        1.3378512E-17
   54.62650        1.3374710E-17
   54.78800        1.3349318E-17
   54.94950        1.3313883E-17
   55.11100        1.3284069E-17
   55.27250        1.3273015E-17
   55.43400        1.3285866E-17
   55.59550        1.3317787E-17
   55.75700        1.3356202E-17
   55.91850        1.3386199E-17
   56.08000        1.3396789E-17
   56.24150        1.3385421E-17
   56.40300        1.3358940E-17
   56.56450        1.3330621E-17
   56.72600        1.3314512E-17
   56.88750        1.3319439E-17
   57.04900        1.3345227E-17
   57.21050        1.3382771E-17
   57.37200        1.3417980E-17
   57.53350        1.3437882E-17
   57.69500        1.3436182E-17
   57.85650        1.3415886E-17
   58.01800        1.3387884E-17
   58.17950        1.3366233E-17
   58.34100        1.3362224E-17
   58.50250        1.3379747E-17
   58.66400        1.3413791E-17
   58.82550        1.3452600E-17
   58.98700        1.3482548E-17
   59.14850        1.3493723E-17
   59.31000        1.3483995E-17
   59.47150        1.3459862E-17
   59.63300        1.3433700E-17
   59.79450        1.3418516E-17
   59.95600        1.3422417E-17
   60.11750        1.3445165E-17
   60.27900        1.3478311E-17
   60.44050        1.3508862E-17
   60.60200        1.3524855E-17
   60.76350        1.3520449E-17
   60.92500        1.3498392E-17
   61.08650        1.3468872E-17
   61.24800        1.3445271E-17
   61.40950        1.3438615E-17
   61.57100        1.3453012E-17
   61.73250        1.3483952E-17
   61.89400        1.3520196E-17
   62.05550        1.3548467E-17
   62.21700        1.3559015E-17
   62.37850        1.3549673E-17
   62.54000        1.3526680E-17
   62.70150        1.3501916E-17
   62.86300        1.3487737E-17
   63.02450        1.3491692E-17
   63.18600        1.3513356E-17
   63.34750        1.3544636E-17
   63.50900        1.3573322E-17
   63.67050        1.3588326E-17
   63.83200        1.3584341E-17
   63.99350        1.3563985E-17
   64.15500        1.3536591E-17
   64.31650        1.3514219E-17
   64.47800        1.3506629E-17
   64.63950        1.3517322E-17
   64.80100        1.3542249E-17
   64.96250        1.3571682E-17
   65.12400        1.3594384E-17
   65.28550        1.3602304E-17
   65.44700        1.3593846E-17
   65.60850        1.3574400E-17
   65.77000        1.3553954E-17
   65.93150        1.3542847E-17
   66.09300        1.3547454E-17
   66.25450        1.3567609E-17
   66.41600        1.3596789E-17
   66.57750        1.3624942E-17
   66.73900        1.3642714E-17
   66.90050        1.3645279E-17
   67.06200        1.3634199E-17
   67.22350        1.3616609E-17
   67.38500        1.3602133E-17
   67.54650        1.3598863E-17
   67.70800        1.3610058E-17
   67.86950        1.3632893E-17
   68.03100        1.3659720E-17
   68.19250        1.3681294E-17
   68.35400        1.3690619E-17
   68.51550        1.3685808E-17
   68.67700        1.3670788E-17
   68.83850        1.3653538E-17
   69.00000        1.3642654E-17
   69.16150        1.3643730E-17
   69.32300        1.3657103E-17
   69.48450        1.3677901E-17
   69.64600        1.3698299E-17
   69.80750        1.3710907E-17
   69.96900        1.3711854E-17
   70.13050        1.3702260E-17
   70.29200        1.3687606E-17
   70.45350        1.3675335E-17
   70.61500        1.3671767E-17
   70.77650        1.3679585E-17
   70.93800        1.3696896E-17
   71.09950        1.3718187E-17
   71.26100        1.3736736E-17
   71.42250        1.3747418E-17
   71.58400        1.3748712E-17
   71.74550        1.3743095E-17
   71.90700        1.3735744E-17
   72.06850        1.3732201E-17
   72.23000        1.3736050E-17
   72.39150        1.3747605E-17
   72.55300        1.3764030E-17
   72.71450        1.3780683E-17
   72.87600        1.3793036E-17
   73.03750        1.3798356E-17
   73.19900        1.3796567E-17
   73.36050        1.3790072E-17
   73.52200        1.3782711E-17
   73.68350        1.3778284E-17
   73.84500        1.3779181E-17
   74.00650        1.3785600E-17
   74.16800        1.3795580E-17
   74.32950        1.3805807E-17
   74.49100        1.3812862E-17
   74.65250        1.3814440E-17
   74.81400        1.3810160E-17
   74.97550        1.3801696E-17
   75.13700        1.3792223E-17
   75.29850        1.3785363E-17
   75.46000        1.3783928E-17
   75.62150        1.3788873E-17
   75.78300        1.3798823E-17
   75.94450        1.3810440E-17
   76.10600        1.3819606E-17
   76.26750        1.3823056E-17
   76.42900        1.3819832E-17
   76.59050        1.3811881E-17
   76.75200        1.3803427E-17
   76.91350        1.3799296E-17
   77.07500        1.3802812E-17
   77.23650        1.3814213E-17
   77.39800        1.3830307E-17
   77.55950        1.3845644E-17
   77.72100        1.3854752E-17
   77.88250        1.3854526E-17
   78.04400        1.3845697E-17
   78.20550        1.3832715E-17
   78.36700        1.3821982E-17
   78.52850        1.3819177E-17
   78.69000        1.3826795E-17
   78.85150        1.3842992E-17
   79.01300        1.3862291E-17
   79.17450        1.3877900E-17
   79.33600        1.3884653E-17
   79.49750        1.3881288E-17
   79.65900        1.3871073E-17
   79.82050        1.3860444E-17
   79.98200        1.3856254E-17
   80.14350        1.3862812E-17
   80.30500        1.3880011E-17
   80.46650        1.3903356E-17
   80.62800        1.3925835E-17
   80.78950        1.3940850E-17
   80.95100        1.3944910E-17
   81.11250        1.3939011E-17
   81.27400        1.3928158E-17
   81.43550        1.3919289E-17
   81.59700        1.3918459E-17
   81.75850        1.3928433E-17
   81.92000        1.3947604E-17
   82.08150        1.3970670E-17
   82.24300        1.3990774E-17
   82.40450        1.4002259E-17
   82.56600        1.4002932E-17
   82.72750        1.3994931E-17
   82.88900        1.3983852E-17
   83.05050        1.3976472E-17
   83.21200        1.3978014E-17
   83.37350        1.3990035E-17
   83.53500        1.4009771E-17
   83.69650        1.4031205E-17
   83.85800        1.4047421E-17
   84.01950        1.4053360E-17
   84.18100        1.4047916E-17
   84.34250        1.4034459E-17
   84.50400        1.4019591E-17
   84.66550        1.4010502E-17
   84.82700        1.4012003E-17
   84.98850        1.4024440E-17
   85.15000        1.4043447E-17
   85.31150        1.4061677E-17
   85.47300        1.4071858E-17
   85.63450        1.4069887E-17
   85.79600        1.4056636E-17
   85.95750        1.4037659E-17
   86.11900        1.4020917E-17
   86.28050        1.4013422E-17
   86.44200        1.4018260E-17
   86.60350        1.4033225E-17
   86.76500        1.4051739E-17
   86.92650        1.4065639E-17
   87.08800        1.4068709E-17
   87.24950        1.4059420E-17
   87.41100        1.4041649E-17
   87.57250        1.4023084E-17
   87.73400        1.4011943E-17
   87.89550        1.4013449E-17
   88.05700        1.4027582E-17
   88.21850        1.4049107E-17
   88.38000        1.4069843E-17
   88.54150        1.4082199E-17
   88.70300        1.4082421E-17
   88.86450        1.4072144E-17
   89.02600        1.4057597E-17
   89.18750        1.4046819E-17
   89.34900        1.4046132E-17
   89.51050        1.4057407E-17
   89.67200        1.4077287E-17
   89.83350        1.4098685E-17
   89.99500        1.4113844E-17
   90.15650        1.4117640E-17
   90.31800        1.4109721E-17
   90.47950        1.4094600E-17
   90.64100        1.4079711E-17
   90.80250        1.4072271E-17
   90.96400        1.4076270E-17
   91.12550        1.4090868E-17
   91.28700        1.4110841E-17
   91.44850        1.4128880E-17
   91.61000        1.4138732E-17
   91.77150        1.4137875E-17
   91.93300        1.4128549E-17
   92.09450        1.4116778E-17
   92.25600        1.4109776E-17
   92.41750        1.4112878E-17
   92.57900        1.4127274E-17
   92.74050        1.4149480E-17
   92.90200        1.4172794E-17
   93.06350        1.4190098E-17
   93.22500        1.4196866E-17
   93.38650        1.4193086E-17
   93.54800        1.4183257E-17
   93.70950        1.4174436E-17
   93.87100        1.4173161E-17
   94.03250        1.4182581E-17
   94.19400        1.4201081E-17
   94.35550        1.4222998E-17
   94.51700        1.4241109E-17
   94.67850        1.4249776E-17
   94.84000        1.4247365E-17
   95.00150        1.4236872E-17
   95.16300        1.4224522E-17
   95.32450        1.4217011E-17
   95.48600        1.4218601E-17
   95.64750        1.4229356E-17
   95.80900        1.4245255E-17
   95.97050        1.4260084E-17
   96.13200        1.4268214E-17
   96.29350        1.4266999E-17
   96.45500        1.4257773E-17
   96.61650        1.4245051E-17
   96.77800        1.4234412E-17
   96.93950        1.4230082E-17
   97.10100        1.4233312E-17
   97.26250        1.4242154E-17
   97.42400        1.4252646E-17
   97.58550        1.4260645E-17
   97.74700        1.4263540E-17
   97.90850        1.4261062E-17
   98.07000        1.4255043E-17
   98.23150        1.4248385E-17
   98.39300        1.4243804E-17
   98.55450        1.4242920E-17
   98.71600        1.4245958E-17
   98.87750        1.4252004E-17
   99.03900        1.4259555E-17
   99.20050        1.4267004E-17
   99.36200        1.4272952E-17
   99.52350        1.4276338E-17
   99.68500        1.4276596E-17
   99.84650        1.4273868E-17
   100.0080        1.4269228E-17
   100.1695        1.4264667E-17
   100.3310        1.4262640E-17
   100.4925        1.4265155E-17
   100.6540        1.4272747E-17
   100.8155        1.4283861E-17
   100.9770        1.4295105E-17
   101.1385        1.4302490E-17
   101.3000        1.4303205E-17
   101.4615        1.4297168E-17
   101.6230        1.4287527E-17
   101.7845        1.4279652E-17
   101.9460        1.4278951E-17
   102.1075        1.4288370E-17
   102.2690        1.4306770E-17
   102.4305        1.4329036E-17
   102.5920        1.4348050E-17
   102.7535        1.4357787E-17
   102.9150        1.4356128E-17
   103.0765        1.4346048E-17
   103.2380        1.4334494E-17
   103.3995        1.4329304E-17
   103.5610        1.4335528E-17
   103.7225        1.4352851E-17
   103.8840        1.4375430E-17
   104.0455        1.4394354E-17
   104.2070        1.4401646E-17
   104.3685        1.4394031E-17
   104.5300        1.4374647E-17
   104.6915        1.4351858E-17
   104.8530        1.4335644E-17
   105.0145        1.4333161E-17
   105.1760        1.4345527E-17
   105.3375        1.4367290E-17
   105.4990        1.4388898E-17
   105.6605        1.4401026E-17
   105.8220        1.4398834E-17
   105.9835        1.4384208E-17
   106.1450        1.4364919E-17
   106.3065        1.4351109E-17
   106.4680        1.4350660E-17
   106.6295        1.4365609E-17
   106.7910        1.4391143E-17
   106.9525        1.4417712E-17
   107.1140        1.4435238E-17
   107.2755        1.4437529E-17
   107.4370        1.4424986E-17
   107.5985        1.4404363E-17
   107.7600        1.4385741E-17
   107.9215        1.4378090E-17
   108.0830        1.4385334E-17
   108.2445        1.4404689E-17
   108.4060        1.4427941E-17
   108.5675        1.4445121E-17
   108.7290        1.4448918E-17
   108.8905        1.4437908E-17
   109.0520        1.4417187E-17
   109.2135        1.4396150E-17
   109.3750        1.4384395E-17
   109.5365        1.4387556E-17
   109.6980        1.4404905E-17
   109.8595        1.4429734E-17
   110.0210        1.4452349E-17
   110.1825        1.4464323E-17
   110.3440        1.4462128E-17
   110.5055        1.4448561E-17
   110.6670        1.4431383E-17
   110.8285        1.4419849E-17
   110.9900        1.4420663E-17
   111.1515        1.4435162E-17
   111.3130        1.4458890E-17
   111.4745        1.4483650E-17
   111.6360        1.4501055E-17
   111.7975        1.4506028E-17
   111.9590        1.4498737E-17
   112.1205        1.4484283E-17
   112.2820        1.4470342E-17
   112.4435        1.4463905E-17
   112.6050        1.4468491E-17
   112.7665        1.4482961E-17
   112.9280        1.4502283E-17
   113.0895        1.4519783E-17
   113.2510        1.4529896E-17
   113.4125        1.4530265E-17
   113.5740        1.4522466E-17
   113.7355        1.4511203E-17
   113.8970        1.4502392E-17
   114.0585        1.4500878E-17
   114.2200        1.4508649E-17
   114.3815        1.4524079E-17
   114.5430        1.4542528E-17
   114.7045        1.4558018E-17
   114.8660        1.4565431E-17
   115.0275        1.4562453E-17
   115.1890        1.4550506E-17
   115.3505        1.4534296E-17
   115.5120        1.4520087E-17
   115.6735        1.4513317E-17
   115.8350        1.4516441E-17
   115.9965        1.4527904E-17
   116.1580        1.4542684E-17
   116.3195        1.4554296E-17
   116.4810        1.4557499E-17
   116.6425        1.4550583E-17
   116.8040        1.4536247E-17
   116.9655        1.4520585E-17
   117.1270        1.4510545E-17
   117.2885        1.4510900E-17
   117.4500        1.4522072E-17
   117.6115        1.4539815E-17
   117.7730        1.4556951E-17
   117.9345        1.4566426E-17
   118.0960        1.4564354E-17
   118.2575        1.4551692E-17
   118.4190        1.4533805E-17
   118.5805        1.4518135E-17
   118.7420        1.4510991E-17