  -27.90000       -4.7189010E-19
  -27.73850       -4.7263575E-19
  -27.57700       -4.7387058E-19
  -27.41550       -4.7520104E-19
  -27.25400       -4.7624851E-19
  -27.09250       -4.7679637E-19
  -26.93100       -4.7686900E-19
  -26.76950       -4.7671215E-19
  -26.60800       -4.7668635E-19
  -26.44650       -4.7710930E-19
  -26.28500       -4.7811505E-19
  -26.12350       -4.7959642E-19
  -25.96200       -4.8123833E-19
  -25.80050       -4.8264645E-19
  -25.63900       -4.8350775E-19
  -25.47750       -4.8371785E-19
  -25.31600       -4.8342596E-19
  -25.15450       -4.8297401E-19
  -24.99300       -4.8275977E-19
  -24.83150       -4.8307632E-19
  -24.67000       -4.8399547E-19
  -24.50850       -4.8534223E-19
  -24.34700       -4.8676518E-19
  -24.18550       -4.8788126E-19
  -24.02400       -4.8843666E-19
  -23.86250       -4.8840791E-19
  -23.70100       -4.8801836E-19
  -23.53950       -4.8764272E-19
  -23.37800       -4.8765218E-19
  -23.21650       -4.8825339E-19
  -23.05500       -4.8940136E-19
  -22.89350       -4.9081723E-19
  -22.73200       -4.9210474E-19
  -22.57050       -4.9292080E-19
  -22.40900       -4.9311633E-19
  -22.24750       -4.9280060E-19
  -22.08600       -4.9229303E-19
  -21.92450       -4.9198723E-19
  -21.76300       -4.9218984E-19
  -21.60150       -4.9298962E-19
  -21.44000       -4.9422351E-19
  -21.27850       -4.9554374E-19
  -21.11700       -4.9656433E-19
  -20.95550       -4.9701731E-19
  -20.79400       -4.9686485E-19
  -20.63250       -4.9631162E-19
  -20.47100       -4.9572200E-19
  -20.30950       -4.9546733E-19
  -20.14800       -4.9577282E-19
  -19.98650       -4.9662761E-19
  -19.82500       -4.9779750E-19
  -19.66350       -4.9893063E-19
  -19.50200       -4.9971103E-19
  -19.34050       -4.9999092E-19
  -19.17900       -4.9984245E-19
  -19.01750       -4.9952046E-19
  -18.85600       -4.9934914E-19
  -18.69450       -4.9959098E-19
  -18.53300       -5.0034201E-19
  -18.37150       -5.0149107E-19
  -18.21000       -5.0275583E-19
  -18.04850       -5.0378753E-19
  -17.88700       -5.0431155E-19
  -17.72550       -5.0424315E-19
  -17.56400       -5.0373355E-19
  -17.40250       -5.0311307E-19
  -17.24100       -5.0275045E-19
  -17.07950       -5.0290053E-19
  -16.91800       -5.0360451E-19
  -16.75650       -5.0468398E-19
  -16.59500       -5.0582503E-19
  -16.43350       -5.0670525E-19
  -16.27200       -5.0711579E-19
  -16.11050       -5.0703380E-19
  -15.94900       -5.0663644E-19
  -15.78750       -5.0624643E-19
  -15.62600       -5.0621980E-19
  -15.46450       -5.0680565E-19
  -15.30300       -5.0802978E-19
  -15.14150       -5.0966713E-19
  -14.98000       -5.1131379E-19
  -14.81850       -5.1255140E-19
  -14.65700       -5.1311146E-19
  -14.49550       -5.1298231E-19
  -14.33400       -5.1241109E-19
  -14.17250       -5.1180467E-19
  -14.01100       -5.1157760E-19
  -13.84950       -5.1199776E-19
  -13.68800       -5.1306896E-19
  -13.52650       -5.1450489E-19
  -13.36500       -5.1580822E-19
  -13.20350       -5.1645409E-19
  -13.04200       -5.1611733E-19
  -12.88050       -5.1484543E-19
  -12.71900       -5.1308359E-19
  -12.55750       -5.1152110E-19
  -12.39600       -5.1080760E-19
  -12.23450       -5.1126995E-19
  -12.07300       -5.1275897E-19
  -11.91150       -5.1469757E-19
  -11.75000       -5.1631456E-19
  -11.58850       -5.1697144E-19
  -11.42700       -5.1643352E-19
  -11.26550       -5.1498993E-19
  -11.10400       -5.1335268E-19
  -10.94250       -5.1237253E-19
  -10.78100       -5.1267677E-19
  -10.61950       -5.1438490E-19
  -10.45800       -5.1702402E-19
  -10.29650       -5.1970667E-19
  -10.13500       -5.2149964E-19
  -9.973500       -5.2182720E-19
  -9.812000       -5.2073108E-19
  -9.650500       -5.1886429E-19
  -9.489000       -5.1721706E-19
  -9.327500       -5.1669165E-19
  -9.166000       -5.1771022E-19
  -9.004500       -5.2002436E-19
  -8.843000       -5.2281713E-19
  -8.681500       -5.2505326E-19
  -8.520000       -5.2593581E-19
  -8.358500       -5.2527385E-19
  -8.197000       -5.2359359E-19
  -8.035500       -5.2193375E-19
  -7.874000       -5.2139562E-19
  -7.712500       -5.2264606E-19
  -7.551000       -5.2558410E-19
  -7.389500       -5.2934219E-19
  -7.228000       -5.3263400E-19
  -7.066500       -5.3430848E-19
  -6.905000       -5.3386511E-19
  -6.743500       -5.3169350E-19
  -6.582000       -5.2890440E-19
  -6.420500       -5.2682456E-19
  -6.259000       -5.2637354E-19
  -6.097500       -5.2762108E-19
  -5.936000       -5.2973861E-19
  -5.774500       -5.3135730E-19
  -5.613000       -5.3119771E-19
  -5.451500       -5.2865919E-19
  -5.290000       -5.2412381E-19
  -5.128500       -5.1882598E-19
  -4.967000       -5.1433336E-19
  -4.805500       -5.1186164E-19
  -4.644000       -5.1172888E-19
  -4.482500       -5.1320405E-19
  -4.321000       -5.1484125E-19
  -4.159500       -5.1516519E-19
  -3.998000       -5.1338391E-19
  -3.836500       -5.0979472E-19
  -3.675000       -5.0567128E-19
  -3.513500       -5.0269213E-19
  -3.352000       -5.0219303E-19
  -3.190500       -5.0458798E-19
  -3.029000       -5.0921606E-19
  -2.867500       -5.1464903E-19
  -2.706000       -5.1930518E-19
  -2.544500       -5.2209019E-19
  -2.383000       -5.2282364E-19
  -2.221500       -5.2228649E-19
  -2.060000       -5.2186024E-19
  -1.898500       -5.2291603E-19
  -1.737000       -5.2618696E-19
  -1.575500       -5.3141701E-19
  -1.414000       -5.3745331E-19
  -1.252500       -5.4275192E-19
  -1.091000       -5.4605853E-19
 -0.9295000       -5.4693591E-19
 -0.7680000       -5.4590017E-19
 -0.6065000       -5.4412980E-19
 -0.4450000       -5.4292258E-19
 -0.2835000       -5.4315429E-19
 -0.1220000       -5.4496298E-19
  3.9500002E-02   -5.4774758E-19
  0.2010000       -5.5044941E-19
  0.3625000       -5.5198910E-19
  0.5240000       -5.5170145E-19
  0.6855000       -5.4959472E-19
  0.8470000       -5.4633274E-19
   1.008500       -5.4293256E-19
   1.170000       -5.4031546E-19
   1.331500       -5.3891654E-19
   1.493000       -5.3854426E-19
   1.654500       -5.3853630E-19
   1.816000       -5.3811537E-19
   1.977500       -5.3674457E-19
   2.139000       -5.3432874E-19
   2.300500       -5.3121668E-19
   2.462000       -5.2804749E-19
   2.623500       -5.2553933E-19
   2.785000       -5.2427979E-19
   2.946500       -5.2456543E-19
   3.108000       -5.2630597E-19
   3.269500       -5.2902905E-19
   3.431000       -5.3200137E-19
   3.592500       -5.3445804E-19
   3.754000       -5.3586797E-19
   3.915500       -5.3613505E-19
   4.077000       -5.3564551E-19
   4.238500       -5.3512439E-19
   4.400000       -5.3533087E-19
   4.561500       -5.3670652E-19
   4.723000       -5.3911517E-19
   4.884500       -5.4181287E-19
   5.046000       -5.4369734E-19
   5.207500       -5.4376930E-19
   5.369000       -5.4161786E-19
   5.530500       -5.3770798E-19
   5.692000       -5.3328944E-19
   5.853500       -5.2994050E-19
   6.015000       -5.2889230E-19
   6.176500       -5.3044177E-19
   6.338000       -5.3371911E-19
   6.499500       -5.3697427E-19
   6.661000       -5.3831668E-19
   6.822500       -5.3660339E-19
   6.984000       -5.3207638E-19
   7.145500       -5.2639132E-19
   7.307000       -5.2195665E-19
   7.468500       -5.2084885E-19
   7.630000       -5.2380716E-19
   7.791500       -5.2981642E-19
   7.953000       -5.3650888E-19
   8.114500       -5.4121921E-19
   8.276000       -5.4220112E-19
   8.437500       -5.3944641E-19
   8.599000       -5.3472967E-19
   8.760500       -5.3084424E-19
   8.922000       -5.3034220E-19
   9.083500       -5.3431199E-19
   9.245000       -5.4174498E-19
   9.406500       -5.4984727E-19
   9.568000       -5.5523098E-19
   9.729500       -5.5549940E-19
   9.891000       -5.5047308E-19
   10.05250       -5.4240218E-19
   10.21400       -5.3499685E-19
   10.37550       -5.3171284E-19
   10.53700       -5.3414454E-19
   10.69850       -5.4131676E-19
   10.86000       -5.5021190E-19
   11.02150       -5.5723317E-19
   11.18300       -5.5987244E-19
   11.34450       -5.5782207E-19
   11.50600       -5.5305761E-19
   11.66750       -5.4888035E-19
   11.82900       -5.4836496E-19
   11.99050       -5.5286906E-19
   12.15200       -5.6129669E-19
   12.31350       -5.7048501E-19
   12.47500       -5.7660858E-19
   12.63650       -5.7696654E-19
   12.79800       -5.7129198E-19
   12.95950       -5.6189381E-19
   13.12100       -5.5254491E-19
   13.28250       -5.4667658E-19
   13.44400       -5.4580804E-19
   13.60550       -5.4897692E-19
   13.76700       -5.5337913E-19
   13.92850       -5.5583378E-19
   14.09000       -5.5430795E-19
   14.25150       -5.4881883E-19
   14.41300       -5.4135492E-19
   14.57450       -5.3491914E-19
   14.73600       -5.3214685E-19
   14.89750       -5.3410101E-19
   15.05900       -5.3978053E-19
   15.22050       -5.4657753E-19
   15.38200       -5.5148131E-19
   15.54350       -5.5247357E-19
   15.70500       -5.4942262E-19
   15.86650       -5.4404853E-19
   16.02800       -5.3899373E-19
   16.18950       -5.3651415E-19
   16.35100       -5.3746433E-19
   16.51250       -5.4104979E-19
   16.67400       -5.4538324E-19
   16.83550       -5.4848092E-19
   16.99700       -5.4917167E-19
   17.15850       -5.4752331E-19
   17.32000       -5.4467093E-19
   17.48150       -5.4219688E-19
   17.64300       -5.4139400E-19
   17.80450       -5.4273398E-19
   17.96600       -5.4575526E-19
   18.12750       -5.4937919E-19
   18.28900       -5.5247683E-19
   18.45050       -5.5439795E-19
   18.61200       -5.5519220E-19
   18.77350       -5.5544971E-19
   18.93500       -5.5587592E-19
   19.09650       -5.5687582E-19
   19.25800       -5.5838191E-19
   19.41950       -5.6000221E-19
   19.58100       -5.6134674E-19
   19.74250       -5.6229763E-19
   19.90400       -5.6304106E-19
   20.06550       -5.6384069E-19
   20.22700       -5.6472696E-19
   20.38850       -5.6533535E-19
   20.55000       -5.6503312E-19
   20.71150       -5.6330012E-19
   20.87300       -5.6013440E-19
   21.03450       -5.5623114E-19
   21.19600       -5.5276960E-19
   21.35750       -5.5088859E-19
   21.51900       -5.5108406E-19
   21.68050       -5.5288116E-19
   21.84200       -5.5497129E-19
   22.00350       -5.5581724E-19
   22.16500       -5.5444624E-19
   22.32650       -5.5104415E-19
   22.48800       -5.4702266E-19
   22.64950       -5.4446098E-19
   22.81100       -5.4512593E-19
   22.97250       -5.4953098E-19
   23.13400       -5.5650990E-19
   23.29550       -5.6358731E-19
   23.45700       -5.6804028E-19
   23.61850       -5.6817956E-19
   23.78000       -5.6422171E-19
   23.94150       -5.5827867E-19
   24.10300       -5.5341930E-19
   24.26450       -5.5222516E-19
   24.42600       -5.5553228E-19
   24.58750       -5.6198330E-19
   24.74900       -5.6862184E-19
   24.91050       -5.7225906E-19
   25.07200       -5.7098463E-19
   25.23350       -5.6511485E-19
   25.39500       -5.5714259E-19
   25.55650       -5.5068908E-19
   25.71800       -5.4890522E-19
   25.87950       -5.5303248E-19
   26.04100       -5.6177852E-19
   26.20250       -5.7181124E-19
   26.36400       -5.7919781E-19
   26.52550       -5.8113936E-19
   26.68700       -5.7720953E-19
   26.84850       -5.6952011E-19
   27.01000       -5.6172776E-19
   27.17150       -5.5735833E-19
   27.33300       -5.5823075E-19
   27.49450       -5.6368936E-19
   27.65600       -5.7095408E-19
   27.81750       -5.7638431E-19
   27.97900       -5.7707749E-19
   28.14050       -5.7211332E-19
   28.30200       -5.6295664E-19
   28.46350       -5.5286477E-19
   28.62500       -5.4556894E-19
   28.78650       -5.4374955E-19
   28.94800       -5.4794160E-19
   29.10950       -5.5631898E-19
   29.27100       -5.6544826E-19
   29.43250       -5.7170784E-19
   29.59400       -5.7275376E-19
   29.75550       -5.6843748E-19
   29.91700       -5.6081610E-19
   30.07850       -5.5328209E-19
   30.24000       -5.4919333E-19
   30.40150       -5.5053094E-19
   30.56300       -5.5708996E-19
   30.72450       -5.6649118E-19
   30.88600       -5.7504666E-19
   31.04750       -5.7918628E-19
   31.20900       -5.7692611E-19
   31.37050       -5.6879658E-19
   31.53200       -5.5778851E-19
   31.69350       -5.4826270E-19
   31.85500       -5.4420652E-19
   32.01650       -5.4754176E-19
   32.17800       -5.5720530E-19
   32.33950       -5.6943718E-19
   32.50100       -5.7922045E-19
   32.66250       -5.8233727E-19
   32.82400       -5.7721645E-19
   32.98550       -5.6578797E-19
   33.14700       -5.5289383E-19
   33.30850       -5.4438788E-19
   33.47000       -5.4463345E-19
   33.63150       -5.5445493E-19
   33.79300       -5.7050828E-19
   33.95450       -5.8648077E-19
   34.11600       -5.9571299E-19
   34.27750       -5.9415380E-19
   34.43900       -5.8230904E-19
   34.60050       -5.6525284E-19
   34.76200       -5.5058853E-19
   34.92350       -5.4517851E-19
   35.08500       -5.5204923E-19
   35.24650       -5.6885511E-19
   35.40800       -5.8867477E-19
   35.56950       -6.0288981E-19
   35.73100       -6.0497488E-19
   35.89250       -5.9352406E-19
   36.05400       -5.7310242E-19
   36.21550       -5.5242115E-19
   36.37700       -5.4056057E-19
   36.53850       -5.4290340E-19
   36.70000       -5.5862578E-19
   36.86150       -5.8094611E-19
   37.02300       -6.0006453E-19
   37.18450       -6.0750016E-19
   37.34600       -5.9989609E-19
   37.50750       -5.8059270E-19
   37.66900       -5.5824176E-19
   37.83050       -5.4304743E-19
   37.99200       -5.4224533E-19
   38.15350       -5.5680872E-19
   38.31500       -5.8087482E-19
   38.47650       -6.0419955E-19
   38.63800       -6.1662535E-19
   38.79950       -6.1258303E-19
   38.96100       -5.9361061E-19
   39.12250       -5.6771675E-19
   39.28400       -5.4586114E-19
   39.44550       -5.3713423E-19
   39.60700       -5.4478467E-19
   39.76850       -5.6485346E-19
   39.93000       -5.8796929E-19
   40.09150       -6.0347928E-19
   40.25300       -6.0410401E-19
   40.41450       -5.8910583E-19
   40.57600       -5.6463343E-19
   40.73750       -5.4108655E-19
   40.89900       -5.2863758E-19
   41.06050       -5.3282488E-19
   41.22200       -5.5213737E-19
   41.38350       -5.7865911E-19
   41.54500       -6.0149291E-19
   41.70650       -6.1146711E-19
   41.86800       -6.0505196E-19
   42.02950       -5.8578429E-19
   42.19100       -5.6262871E-19
   42.35250       -5.4604208E-19
   42.51400       -5.4348025E-19
   42.67550       -5.5624396E-19
   42.83700       -5.7898331E-19
   42.99850       -6.0201119E-19
   43.16000       -6.1544502E-19
   43.32150       -6.1342644E-19
   43.48300       -5.9664470E-19
   43.64450       -5.7207542E-19
   43.80600       -5.5002584E-19
   43.96750       -5.3972289E-19
   44.12900       -5.4534250E-19
   44.29050       -5.6419467E-19
   44.45200       -5.8786863E-19
   44.61350       -6.0583907E-19
   44.77500       -6.0999059E-19
   44.93650       -5.9811553E-19
   45.09800       -5.7490454E-19
   45.25950       -5.4999896E-19
   45.42100       -5.3392828E-19
   45.58250       -5.3362828E-19
   45.74400       -5.4944107E-19
   45.90550       -5.7488970E-19
   46.06700       -5.9937083E-19
   46.22850       -6.1266331E-19
   46.39000       -6.0934518E-19
   46.55150       -5.9119912E-19
   46.71300       -5.6652799E-19
   46.87450       -5.4661155E-19
   47.03600       -5.4080960E-19
   47.19750       -5.5241965E-19
   47.35900       -5.7711668E-19
   47.52050       -6.0470320E-19
   47.68200       -6.2345890E-19
   47.84350       -6.2521986E-19
   48.00500       -6.0898846E-19
   48.16650       -5.8146082E-19
   48.32800       -5.5421468E-19
   48.48950       -5.3874123E-19
   48.65100       -5.4147801E-19
   48.81250       -5.6100925E-19
   48.97400       -5.8867420E-19
   49.13550       -6.1235012E-19
   49.29700       -6.2176184E-19
   49.45850       -6.1300778E-19
   49.62000       -5.9029092E-19
   49.78150       -5.6405901E-19
   49.94300       -5.4635404E-19
   50.10450       -5.4542723E-19
   50.26600       -5.6203645E-19
   50.42750       -5.8910102E-19
   50.58900       -6.1485969E-19
   50.75050       -6.2810569E-19
   50.91200       -6.2312777E-19
   51.07350       -6.0216009E-19
   51.23500       -5.7428715E-19
   51.39650       -5.5135269E-19
   51.55800       -5.4273005E-19
   51.71950       -5.5128083E-19
   51.88100       -5.7226035E-19
   52.04250       -5.9560085E-19
   52.20400       -6.1051192E-19
   52.36550       -6.1031086E-19
   52.52700       -5.9532318E-19
   52.68850       -5.7257783E-19
   52.85000       -5.5249890E-19
   53.01150       -5.4415534E-19
   53.17300       -5.5124774E-19
   53.33450       -5.7061131E-19
   53.49600       -5.9381993E-19
   53.65750       -6.1104633E-19
   53.81900       -6.1538800E-19
   53.98050       -6.0573464E-19
   54.14200       -5.8700386E-19
   54.30350       -5.6776168E-19
   54.46500       -5.5636695E-19
   54.62650       -5.5737317E-19
   54.78800       -5.6972514E-19
   54.94950       -5.8745752E-19
   55.11100       -6.0249427E-19
   55.27250       -6.0825031E-19
   55.43400       -6.0243264E-19
   55.59550       -5.8787245E-19
   55.75700       -5.7111093E-19
   55.91850       -5.5946469E-19
   56.08000       -5.5788959E-19
   56.24150       -5.6699441E-19
   56.40300       -5.8297130E-19
   56.56450       -5.9936861E-19
   56.72600       -6.0987406E-19
   56.88750       -6.1088741E-19
   57.04900       -6.0284411E-19
   57.21050       -5.8980759E-19
   57.37200       -5.7760259E-19
   57.53350       -5.7134611E-19
   57.69500       -5.7340894E-19
   57.85650       -5.8260285E-19
   58.01800       -5.9484119E-19
   58.17950       -6.0491486E-19
   58.34100       -6.0861328E-19
   58.50250       -6.0435346E-19
   58.66400       -5.9371199E-19
   58.82550       -5.8070405E-19
   58.98700       -5.7015306E-19
   59.14850       -5.6581144E-19
   59.31000       -5.6895918E-19
   59.47150       -5.7800233E-19
   59.63300       -5.8918136E-19
   59.79450       -5.9807050E-19
   59.95600       -6.0127500E-19
   60.11750       -5.9769920E-19
   60.27900       -5.8891729E-19
   60.44050       -5.7853503E-19
   60.60200       -5.7078786E-19
   60.76350       -5.6888685E-19
   60.92500       -5.7374959E-19
   61.08650       -5.8360601E-19
   61.24800       -5.9466392E-19
   61.40950       -6.0258681E-19
   61.57100       -6.0421108E-19
   61.73250       -5.9880540E-19
   61.89400       -5.8837238E-19
   62.05550       -5.7685834E-19
   62.21700       -5.6859155E-19
   62.37850       -5.6656868E-19
   62.54000       -5.7127213E-19
   62.70150       -5.8049333E-19
   62.86300       -5.9025282E-19
   63.02450       -5.9646024E-19
   63.18600       -5.9665065E-19
   63.34750       -5.9105534E-19
   63.50900       -5.8254515E-19
   63.67050       -5.7542168E-19
   63.83200       -5.7356021E-19
   63.99350       -5.7868780E-19
   64.15500       -5.8955251E-19
   64.31650       -6.0236373E-19
   64.47800       -6.1235679E-19
   64.63950       -6.1582873E-19
   64.80100       -6.1177720E-19
   64.96250       -6.0239423E-19
   65.12400       -5.9214701E-19
   65.28550       -5.8579246E-19
   65.44700       -5.8619069E-19
   65.60850       -5.9292870E-19
   65.77000       -6.0243424E-19
   65.93150       -6.0959267E-19
   66.09300       -6.1014470E-19
   66.25450       -6.0276114E-19
   66.41600       -5.8978521E-19
   66.57750       -5.7627021E-19
   66.73900       -5.6771530E-19
   66.90050       -5.6752784E-19
   67.06200       -5.7539950E-19
   67.22350       -5.8737646E-19
   67.38500       -5.9764957E-19
   67.54650       -6.0127206E-19
   67.70800       -5.9654353E-19
   67.86950       -5.8590480E-19
   68.03100       -5.7485697E-19
   68.19250       -5.6936010E-19
   68.35400       -5.7294221E-19
   68.51550       -5.8491859E-19
   68.67700       -6.0062050E-19
   68.83850       -6.1354757E-19
   69.00000       -6.1841512E-19
   69.16150       -6.1363262E-19
   69.32300       -6.0202236E-19
   69.48450       -5.8944570E-19
   69.64600       -5.8201410E-19
   69.80750       -5.8321062E-19
   69.96900       -5.9228339E-19
   70.13050       -6.0466277E-19
   70.29200       -6.1418491E-19
   70.45350       -6.1606049E-19
   70.61500       -6.0916310E-19
   70.77650       -5.9654389E-19
   70.93800       -5.8392778E-19
   71.09950       -5.7692658E-19
   71.26100       -5.7833201E-19
   71.42250       -5.8681744E-19
   71.58400       -5.9766364E-19
   71.74550       -6.0512687E-19
   71.90700       -6.0526873E-19
   72.06850       -5.9783884E-19
   72.23000       -5.8632899E-19
   72.39150       -5.7620409E-19
   72.55300       -5.7222824E-19
   72.71450       -5.7618889E-19
   72.87600       -5.8611201E-19
   73.03750       -5.9729947E-19
   73.19900       -6.0464463E-19
   73.36050       -6.0509275E-19
   73.52200       -5.9906736E-19
   73.68350       -5.9019016E-19
   73.84500       -5.8345153E-19
   74.00650       -5.8273173E-19
   74.16800       -5.8888730E-19
   74.32950       -5.9933950E-19
   74.49100       -6.0935997E-19
   74.65250       -6.1441110E-19
   74.81400       -6.1237696E-19
   74.97550       -6.0457039E-19
   75.13700       -5.9504980E-19
   75.29850       -5.8858977E-19
   75.46000       -5.8833428E-19
   75.62150       -5.9427338E-19
   75.78300       -6.0327569E-19
   75.94450       -6.1063889E-19
   76.10600       -6.1239107E-19
   76.26750       -6.0724611E-19
   76.42900       -5.9727181E-19
   76.59050       -5.8694410E-19
   76.75200       -5.8102293E-19
   76.91350       -5.8225104E-19
   77.07500       -5.8998740E-19
   77.23650       -6.0045092E-19
   77.39800       -6.0849675E-19
   77.55950       -6.1008727E-19
   77.72100       -6.0427369E-19
   77.88250       -5.9372181E-19
   78.04400       -5.8351285E-19
   78.20550       -5.7875791E-19
   78.36700       -5.8215989E-19
   78.52850       -5.9266664E-19
   78.69000       -6.0587340E-19
   78.85150       -6.1600973E-19
   79.01300       -6.1859854E-19
   79.17450       -6.1255687E-19
   79.33600       -6.0074266E-19
   79.49750       -5.8867637E-19
   79.65900       -5.8202454E-19
   79.82050       -5.8399675E-19
   79.98200       -5.9387308E-19
   80.14350       -6.0732304E-19
   80.30500       -6.1836404E-19
   80.46650       -6.2205052E-19
   80.62800       -6.1668620E-19
   80.78950       -6.0456790E-19
   80.95100       -5.9095536E-19
   81.11250       -5.8174180E-19
   81.27400       -5.8087874E-19
   81.43550       -5.8868350E-19
   81.59700       -6.0177803E-19
   81.75850       -6.1462771E-19
   81.92000       -6.2196713E-19
   82.08150       -6.2100781E-19
   82.24300       -6.1248154E-19
   82.40450       -6.0014244E-19
   82.56600       -5.8905698E-19
   82.72750       -5.8348411E-19
   82.88900       -5.8524305E-19
   83.05050       -5.9316233E-19
   83.21200       -6.0372785E-19
   83.37350       -6.1257956E-19
   83.53500       -6.1624387E-19
   83.69650       -6.1344645E-19
   83.85800       -6.0553478E-19
   84.01950       -5.9588137E-19
   84.18100       -5.8851750E-19
   84.34250       -5.8654886E-19
   84.50400       -5.9096187E-19
   84.66550       -6.0027225E-19
   84.82700       -6.1111220E-19
   84.98850       -6.1950891E-19
   85.15000       -6.2237255E-19
   85.31150       -6.1865877E-19
   85.47300       -6.0980691E-19
   85.63450       -5.9925565E-19
   85.79600       -5.9116313E-19
   85.95750       -5.8874177E-19
   86.11900       -5.9285549E-19
   86.28050       -6.0151985E-19
   86.44200       -6.1062938E-19
   86.60350       -6.1570982E-19
   86.76500       -6.1396452E-19
   86.92650       -6.0566133E-19
   87.08800       -5.9416911E-19
   87.24950       -5.8454869E-19
   87.41100       -5.8129564E-19
   87.57250       -5.8625862E-19
   87.73400       -5.9769936E-19
   87.89550       -6.1097147E-19
   88.05700       -6.2055974E-19
   88.21850       -6.2259755E-19
   88.38000       -6.1670802E-19
   88.54150       -6.0627743E-19
   88.70300       -5.9694388E-19
   88.86450       -5.9393688E-19
   89.02600       -5.9951275E-19
   89.18750       -6.1173320E-19
   89.34900       -6.2525140E-19
   89.51050       -6.3378940E-19
   89.67200       -6.3314700E-19
   89.83350       -6.2328571E-19
   89.99500       -6.0845457E-19
   90.15650       -5.9526228E-19
   90.31800       -5.8958456E-19
   90.47950       -5.9376787E-19
   90.64100       -6.0545723E-19
   90.80250       -6.1863287E-19
   90.96400       -6.2640702E-19
   91.12550       -6.2429508E-19
   91.28700       -6.1241976E-19
   91.44850       -5.9557681E-19
   91.61000       -5.8109200E-19
   91.77150       -5.7544096E-19
   91.93300       -5.8123066E-19
   92.09450       -5.9597050E-19
   92.25600       -6.1323262E-19
   92.41750       -6.2565444E-19
   92.57900       -6.2835498E-19
   92.74050       -6.2115458E-19
   92.90200       -6.0854918E-19
   93.06350       -5.9748843E-19
   93.22500       -5.9401892E-19
   93.38650       -6.0041665E-19
   93.54800       -6.1414816E-19
   93.70950       -6.2913946E-19
   93.87100       -6.3869676E-19
   94.03250       -6.3864620E-19
   94.19400       -6.2919907E-19
   94.35550       -6.1467538E-19
   94.51700       -6.0131574E-19
   94.67850       -5.9430290E-19
   94.84000       -5.9545051E-19
   95.00150       -6.0262558E-19
   95.16300       -6.1105889E-19
   95.32450       -6.1580448E-19
   95.48600       -6.1409537E-19
   95.64750       -6.0649462E-19
   95.80900       -5.9637866E-19
   95.97050       -5.8813679E-19
   96.13200       -5.8502923E-19
   96.29350       -5.8776973E-19
   96.45500       -5.9444477E-19
   96.61650       -6.0169568E-19
   96.77800       -6.0646866E-19
   96.93950       -6.0742168E-19
   97.10100       -6.0533077E-19
   97.26250       -6.0242225E-19
   97.42400       -6.0110269E-19
   97.58550       -6.0279334E-19
   97.74700       -6.0743326E-19
   97.90850       -6.1375493E-19
   98.07000       -6.2005459E-19
   98.23150       -6.2498655E-19
   98.39300       -6.2800560E-19
   98.55450       -6.2934750E-19
   98.71600       -6.2968891E-19
   98.87750       -6.2973255E-19
   99.03900       -6.2992456E-19
   99.20050       -6.3037330E-19
   99.36200       -6.3091506E-19
   99.52350       -6.3123295E-19
   99.68500       -6.3094525E-19
   99.84650       -6.2966074E-19
   100.0080       -6.2705838E-19
   100.1695       -6.2302670E-19
   100.3310       -6.1784178E-19
   100.4925       -6.1225707E-19
   100.6540       -6.0736403E-19
   100.8155       -6.0419025E-19
   100.9770       -6.0318046E-19
   101.1385       -6.0386216E-19
   101.3000       -6.0495839E-19
   101.4615       -6.0500497E-19
   101.6230       -6.0319385E-19
   101.7845       -5.9997933E-19
   101.9460       -5.9703089E-19
   102.1075       -5.9646521E-19
   102.2690       -5.9969379E-19
   102.4305       -6.0648557E-19
   102.5920       -6.1480525E-19
   102.7535       -6.2158560E-19
   102.9150       -6.2413662E-19
   103.0765       -6.2150939E-19
   103.2380       -6.1512242E-19
   103.3995       -6.0825910E-19
   103.5610       -6.0458807E-19
   103.7225       -6.0636914E-19
   103.8840       -6.1321422E-19
   104.0455       -6.2207735E-19
   104.2070       -6.2857031E-19
   104.3685       -6.2904547E-19
   104.5300       -6.2245160E-19
   104.6915       -6.1102358E-19
   104.8530       -5.9940899E-19
   105.0145       -5.9257870E-19
   105.1760       -5.9349640E-19
   105.3375       -6.0165949E-19
   105.4990       -6.1322957E-19
   105.6605       -6.2273600E-19
   105.8220       -6.2558972E-19
   105.9835       -6.2025823E-19
   106.1450       -6.0907206E-19
   106.3065       -5.9726183E-19
   106.4680       -5.9062939E-19
   106.6295       -5.9290125E-19
   106.7910       -6.0398102E-19
   106.9525       -6.1991888E-19
   107.1140       -6.3461028E-19
   107.2755       -6.4247578E-19
   107.4370       -6.4088449E-19
   107.5985       -6.3125275E-19
   107.7600       -6.1834232E-19
   107.9215       -6.0809857E-19
   108.0830       -6.0500181E-19
   108.2445       -6.1009595E-19
   108.4060       -6.2056651E-19
   108.5675       -6.3104373E-19
   108.7290       -6.3605174E-19
   108.8905       -6.3251994E-19
   109.0520       -6.2123451E-19
   109.2135       -6.0655764E-19
   109.3750       -5.9454454E-19
   109.5365       -5.9029134E-19
   109.6980       -5.9569226E-19
   109.8595       -6.0860196E-19
   110.0210       -6.2376692E-19
   110.1825       -6.3511186E-19
   110.3440       -6.3840300E-19
   110.5055       -6.3311928E-19
   110.6670       -6.2271113E-19
   110.8285       -6.1307184E-19
   110.9900       -6.0984982E-19
   111.1515       -6.1575966E-19
   111.3130       -6.2913915E-19
   111.4745       -6.4449152E-19
   111.6360       -6.5486524E-19
   111.7975       -6.5505332E-19
   111.9590       -6.4412322E-19
   112.1205       -6.2605801E-19
   112.2820       -6.0812556E-19
   112.4435       -5.9764833E-19
   112.6050       -5.9864922E-19
   112.7665       -6.0991465E-19
   112.9280       -6.2544088E-19
   113.0895       -6.3711224E-19
   113.2510       -6.3845238E-19
   113.4125       -6.2771795E-19
   113.5740       -6.0887509E-19
   113.7355       -5.8991549E-19
   113.8970       -5.7922635E-19
   114.0585       -5.8166772E-19
   114.2200       -5.9621845E-19
   114.3815       -6.1633445E-19
   114.5430       -6.3291383E-19
   114.7045       -6.3848841E-19
   114.8660       -6.3068443E-19
   115.0275       -6.1331705E-19
   115.1890       -5.9461765E-19
   115.3505       -5.8342636E-19
   115.5120       -5.8514333E-19
   115.6735       -5.9930698E-19
   115.8350       -6.1988713E-19
   115.9965       -6.3810811E-19
   116.1580       -6.4644868E-19
   116.3195       -6.4197074E-19
   116.4810       -6.2749213E-19
   116.6425       -6.1013695E-19
   116.8040       -5.9801172E-19
   116.9655       -5.9656498E-19
   117.1270       -6.0627572E-19
   117.2885       -6.2263792E-19
   117.4500       -6.3835353E-19
   117.6115       -6.4666370E-19
   117.7730       -6.4429672E-19
   117.9345       -6.3275026E-19
   118.0960       -6.1742720E-19
   118.2575       -6.0511581E-19
   118.4190       -6.0101553E-19
   118.5805       -6.0663048E-19
   118.7420       -6.1937925E-19