  -27.90000       -3.5689499E-19
  -27.73850       -3.7542665E-19
  -27.57700       -4.0787609E-19
  -27.41550       -4.4669847E-19
  -27.25400       -4.8347083E-19
  -27.09250       -5.1118873E-19
  -26.93100       -5.2615222E-19
  -26.76950       -5.2891061E-19
  -26.60800       -5.2397787E-19
  -26.44650       -5.1841058E-19
  -26.28500       -5.1965606E-19
  -26.12350       -5.3331002E-19
  -25.96200       -5.6142728E-19
  -25.80050       -6.0187259E-19
  -25.63900       -6.4888271E-19
  -25.47750       -6.9466457E-19
  -25.31600       -7.3157368E-19
  -25.15450       -7.5425828E-19
  -24.99300       -7.6117305E-19
  -24.83150       -7.5503501E-19
  -24.67000       -7.4207903E-19
  -24.50850       -7.3032097E-19
  -24.34700       -7.2729964E-19
  -24.18550       -7.3795502E-19
  -24.02400       -7.6325372E-19
  -23.86250       -7.9995805E-19
  -23.70100       -8.4160313E-19
  -23.53950       -8.8038508E-19
  -23.37800       -9.0940816E-19
  -23.21650       -9.2463852E-19
  -23.05500       -9.2602663E-19
  -22.89350       -9.1748392E-19
  -22.73200       -9.0574954E-19
  -22.57050       -8.9845525E-19
  -22.40900       -9.0193737E-19
  -22.24750       -9.1941063E-19
  -22.08600       -9.5002541E-19
  -21.92450       -9.8909625E-19
  -21.76300       -1.0294471E-18
  -21.60150       -1.0634861E-18
  -21.44000       -1.0854087E-18
  -21.27850       -1.0928725E-18
  -21.11700       -1.0876626E-18
  -20.95550       -1.0751571E-18
  -20.79400       -1.0627701E-18
  -20.63250       -1.0578288E-18
  -20.47100       -1.0654862E-18
  -20.30950       -1.0872645E-18
  -20.14800       -1.1206145E-18
  -19.98650       -1.1596304E-18
  -19.82500       -1.1967186E-18
  -19.66350       -1.2247583E-18
  -19.50200       -1.2391474E-18
  -19.34050       -1.2391367E-18
  -19.17900       -1.2280534E-18
  -19.01750       -1.2123402E-18
  -18.85600       -1.1996868E-18
  -18.69450       -1.1968139E-18
  -18.53300       -1.2075491E-18
  -18.37150       -1.2317566E-18
  -18.21000       -1.2654099E-18
  -18.04850       -1.3017737E-18
  -17.88700       -1.3333430E-18
  -17.72550       -1.3540028E-18
  -17.56400       -1.3607916E-18
  -17.40250       -1.3547799E-18
  -17.24100       -1.3407949E-18
  -17.07950       -1.3260576E-18
  -16.91800       -1.3181038E-18
  -16.75650       -1.3225880E-18
  -16.59500       -1.3416194E-18
  -16.43350       -1.3731216E-18
  -16.27200       -1.4114026E-18
  -16.11050       -1.4487692E-18
  -15.94900       -1.4777061E-18
  -15.78750       -1.4929852E-18
  -15.62600       -1.4931201E-18
  -15.46450       -1.4807686E-18
  -15.30300       -1.4619744E-18
  -15.14150       -1.4444658E-18
  -14.98000       -1.4354733E-18
  -14.81850       -1.4396794E-18
  -14.65700       -1.4578753E-18
  -14.49550       -1.4867371E-18
  -14.33400       -1.5197988E-18
  -14.17250       -1.5493552E-18
  -14.01100       -1.5687274E-18
  -13.84950       -1.5742291E-18
  -13.68800       -1.5662494E-18
  -13.52650       -1.5491386E-18
  -13.36500       -1.5299643E-18
  -13.20350       -1.5164968E-18
  -13.04200       -1.5150088E-18
  -12.88050       -1.5285024E-18
  -12.71900       -1.5558345E-18
  -12.55750       -1.5920001E-18
  -12.39600       -1.6294889E-18
  -12.23450       -1.6603685E-18
  -12.07300       -1.6785053E-18
  -11.91150       -1.6812922E-18
  -11.75000       -1.6703686E-18
  -11.58850       -1.6511124E-18
  -11.42700       -1.6310479E-18
  -11.26550       -1.6176472E-18
  -11.10400       -1.6161829E-18
  -10.94250       -1.6282502E-18
  -10.78100       -1.6513675E-18
  -10.61950       -1.6797465E-18
  -10.45800       -1.7059921E-18
  -10.29650       -1.7232483E-18
  -10.13500       -1.7271842E-18
  -9.973500       -1.7172805E-18
  -9.812000       -1.6970349E-18
  -9.650500       -1.6730172E-18
  -9.489000       -1.6530274E-18
  -9.327500       -1.6438676E-18
  -9.166000       -1.6493944E-18
  -9.004500       -1.6694160E-18
  -8.843000       -1.6997641E-18
  -8.681500       -1.7335044E-18
  -8.520000       -1.7629161E-18
  -8.358500       -1.7816577E-18
  -8.197000       -1.7865017E-18
  -8.035500       -1.7781699E-18
  -7.874000       -1.7610530E-18
  -7.712500       -1.7419071E-18
  -7.551000       -1.7278885E-18
  -7.389500       -1.7244716E-18
  -7.228000       -1.7338491E-18
  -7.066500       -1.7542702E-18
  -6.905000       -1.7805408E-18
  -6.743500       -1.8055390E-18
  -6.582000       -1.8223087E-18
  -6.420500       -1.8260957E-18
  -6.259000       -1.8157241E-18
  -6.097500       -1.7939182E-18
  -5.936000       -1.7665040E-18
  -5.774500       -1.7407474E-18
  -5.613000       -1.7233202E-18
  -5.451500       -1.7184551E-18
  -5.290000       -1.7268006E-18
  -5.128500       -1.7452686E-18
  -4.967000       -1.7679342E-18
  -4.805500       -1.7877371E-18
  -4.644000       -1.7985293E-18
  -4.482500       -1.7968725E-18
  -4.321000       -1.7830577E-18
  -4.159500       -1.7610264E-18
  -3.998000       -1.7372172E-18
  -3.836500       -1.7186825E-18
  -3.675000       -1.7110505E-18
  -3.513500       -1.7169299E-18
  -3.352000       -1.7352117E-18
  -3.190500       -1.7614350E-18
  -3.029000       -1.7890881E-18
  -2.867500       -1.8114583E-18
  -2.706000       -1.8235240E-18
  -2.544500       -1.8233650E-18
  -2.383000       -1.8127045E-18
  -2.221500       -1.7964167E-18
  -2.060000       -1.7811215E-18
  -1.898500       -1.7732519E-18
  -1.737000       -1.7771574E-18
  -1.575500       -1.7938088E-18
  -1.414000       -1.8204868E-18
  -1.252500       -1.8515551E-18
  -1.091000       -1.8800717E-18
 -0.9295000       -1.8997530E-18
 -0.7680000       -1.9067276E-18
 -0.6065000       -1.9005939E-18
 -0.4450000       -1.8845036E-18
 -0.2835000       -1.8642550E-18
 -0.1220000       -1.8466640E-18
  3.9500002E-02   -1.8376434E-18
  0.2010000       -1.8405352E-18
  0.3625000       -1.8551692E-18
  0.5240000       -1.8779328E-18
  0.6855000       -1.9028506E-18
  0.8470000       -1.9233599E-18
   1.008500       -1.9342587E-18
   1.170000       -1.9332419E-18
   1.331500       -1.9215749E-18
   1.493000       -1.9037194E-18
   1.654500       -1.8860485E-18
   1.816000       -1.8750259E-18
   1.977500       -1.8753647E-18
   2.139000       -1.8886825E-18
   2.300500       -1.9130051E-18
   2.462000       -1.9432660E-18
   2.623500       -1.9726868E-18
   2.785000       -1.9946573E-18
   2.946500       -2.0046017E-18
   3.108000       -2.0012797E-18
   3.269500       -1.9871273E-18
   3.431000       -1.9675316E-18
   3.592500       -1.9492459E-18
   3.754000       -1.9384308E-18
   3.915500       -1.9388992E-18
   4.077000       -1.9510728E-18
   4.238500       -1.9719248E-18
   4.400000       -1.9958987E-18
   4.561500       -2.0165239E-18
   4.723000       -2.0282737E-18
   4.884500       -2.0281608E-18
   5.046000       -2.0166182E-18
   5.207500       -1.9974236E-18
   5.369000       -1.9766612E-18
   5.530500       -1.9609917E-18
   5.692000       -1.9557333E-18
   5.853500       -1.9633064E-18
   6.015000       -1.9825180E-18
   6.176500       -2.0088991E-18
   6.338000       -2.0359880E-18
   6.499500       -2.0571756E-18
   6.661000       -2.0675617E-18
   6.822500       -2.0653029E-18
   6.984000       -2.0520812E-18
   7.145500       -2.0325875E-18
   7.307000       -2.0131715E-18
   7.468500       -2.0000394E-18
   7.630000       -1.9974952E-18
   7.791500       -2.0067234E-18
   7.953000       -2.0254617E-18
   8.114500       -2.0486776E-18
   8.276000       -2.0700559E-18
   8.437500       -2.0838681E-18
   8.599000       -2.0866607E-18
   8.760500       -2.0782721E-18
   8.922000       -2.0618724E-18
   9.083500       -2.0430507E-18
   9.245000       -2.0282156E-18
   9.406500       -2.0227850E-18
   9.568000       -2.0296717E-18
   9.729500       -2.0484737E-18
   9.891000       -2.0755945E-18
   10.05250       -2.1052555E-18
   10.21400       -2.1311200E-18
   10.37550       -2.1480811E-18
   10.53700       -2.1537025E-18
   10.69850       -2.1488773E-18
   10.86000       -2.1375129E-18
   11.02150       -2.1253339E-18
   11.18300       -2.1181649E-18
   11.34450       -2.1202167E-18
   11.50600       -2.1328767E-18
   11.66750       -2.1543381E-18
   11.82900       -2.1801590E-18
   11.99050       -2.2045569E-18
   12.15200       -2.2220660E-18
   12.31350       -2.2290931E-18
   12.47500       -2.2249405E-18
   12.63650       -2.2120131E-18
   12.79800       -2.1951438E-18
   12.95950       -2.1802146E-18
   13.12100       -2.1724608E-18
   13.28250       -2.1749548E-18
   13.44400       -2.1877198E-18
   13.60550       -2.2077506E-18
   13.76700       -2.2299197E-18
   13.92850       -2.2484994E-18
   14.09000       -2.2588340E-18
   14.25150       -2.2586762E-18
   14.41300       -2.2488075E-18
   14.57450       -2.2328001E-18
   14.73600       -2.2159918E-18
   14.89750       -2.2039861E-18
   15.05900       -2.2010817E-18
   15.22050       -2.2090675E-18
   15.38200       -2.2267235E-18
   15.54350       -2.2501753E-18
   15.70500       -2.2740109E-18
   15.86650       -2.2928450E-18
   16.02800       -2.3028739E-18
   16.18950       -2.3029618E-18
   16.35100       -2.2949409E-18
   16.51250       -2.2830445E-18
   16.67400       -2.2726531E-18
   16.83550       -2.2687273E-18
   16.99700       -2.2743709E-18
   17.15850       -2.2899310E-18
   17.32000       -2.3128698E-18
   17.48150       -2.3384435E-18
   17.64300       -2.3610024E-18
   17.80450       -2.3755591E-18
   17.96600       -2.3791871E-18
   18.12750       -2.3718562E-18
   18.28900       -2.3564533E-18
   18.45050       -2.3379722E-18
   18.61200       -2.3221098E-18
   18.77350       -2.3136715E-18
   18.93500       -2.3152537E-18
   19.09650       -2.3265702E-18
   19.25800       -2.3446091E-18
   19.41950       -2.3645369E-18
   19.58100       -2.3811056E-18
   19.74250       -2.3901516E-18
   19.90400       -2.3897924E-18
   20.06550       -2.3809819E-18
   20.22700       -2.3672749E-18
   20.38850       -2.3538440E-18
   20.55000       -2.3460149E-18
   20.71150       -2.3477232E-18
   20.87300       -2.3603477E-18
   21.03450       -2.3822560E-18
   21.19600       -2.4092159E-18
   21.35750       -2.4355429E-18
   21.51900       -2.4556567E-18
   21.68050       -2.4655915E-18
   21.84200       -2.4640441E-18
   22.00350       -2.4526782E-18
   22.16500       -2.4356306E-18
   22.32650       -2.4183512E-18
   22.48800       -2.4061032E-18
   22.64950       -2.4025291E-18
   22.81100       -2.4086641E-18
   22.97250       -2.4226844E-18
   23.13400       -2.4404713E-18
   23.29550       -2.4568404E-18
   23.45700       -2.4670951E-18
   23.61850       -2.4684426E-18
   23.78000       -2.4608474E-18
   23.94150       -2.4470786E-18
   24.10300       -2.4319319E-18
   24.26450       -2.4208628E-18
   24.42600       -2.4184282E-18
   24.58750       -2.4269827E-18
   24.74900       -2.4459888E-18
   24.91050       -2.4721293E-18
   25.07200       -2.5001966E-18
   25.23350       -2.5245139E-18
   25.39500       -2.5405047E-18
   25.55650       -2.5459610E-18
   25.71800       -2.5416493E-18
   25.87950       -2.5310639E-18
   26.04100       -2.5193872E-18
   26.20250       -2.5119595E-18
   26.36400       -2.5127059E-18
   26.52550       -2.5229838E-18
   26.68700       -2.5411871E-18
   26.84850       -2.5632172E-18
   27.01000       -2.5836819E-18
   27.17150       -2.5974687E-18
   27.33300       -2.6012547E-18
   27.49450       -2.5945165E-18
   27.65600       -2.5797447E-18
   27.81750       -2.5617887E-18
   27.97900       -2.5464976E-18
   28.14050       -2.5390383E-18
   28.30200       -2.5423812E-18
   28.46350       -2.5564038E-18
   28.62500       -2.5779005E-18
   28.78650       -2.6015014E-18
   28.94800       -2.6212336E-18
   29.10950       -2.6322688E-18
   29.27100       -2.6323398E-18
   29.43250       -2.6224107E-18
   29.59400       -2.6064240E-18
   29.75550       -2.5901763E-18
   29.91700       -2.5796575E-18
   30.07850       -2.5793090E-18
   30.24000       -2.5906978E-18
   30.40150       -2.6120052E-18
   30.56300       -2.6384909E-18
   30.72450       -2.6638305E-18
   30.88600       -2.6819419E-18
   31.04750       -2.6887785E-18
   31.20900       -2.6835358E-18
   31.37050       -2.6689049E-18
   31.53200       -2.6502875E-18
   31.69350       -2.6342048E-18
   31.85500       -2.6263696E-18
   32.01650       -2.6299935E-18
   32.17800       -2.6448213E-18
   32.33950       -2.6671711E-18
   32.50100       -2.6909691E-18
   32.66250       -2.7094919E-18
   32.82400       -2.7173228E-18
   32.98550       -2.7119669E-18
   33.14700       -2.6946511E-18
   33.30850       -2.6700565E-18
   33.47000       -2.6450411E-18
   33.63150       -2.6267118E-18
   33.79300       -2.6204013E-18
   33.95450       -2.6281482E-18
   34.11600       -2.6481381E-18
   34.27750       -2.6752580E-18
   34.43900       -2.7026131E-18
   34.60050       -2.7235416E-18
   34.76200       -2.7335465E-18
   34.92350       -2.7315826E-18
   35.08500       -2.7203251E-18
   35.24650       -2.7053535E-18
   35.40800       -2.6934785E-18
   35.56950       -2.6906986E-18
   35.73100       -2.7003803E-18
   35.89250       -2.7221978E-18
   36.05400       -2.7521560E-18
   36.21550       -2.7836929E-18
   36.37700       -2.8095496E-18
   36.53850       -2.8238540E-18
   36.70000       -2.8238099E-18
   36.86150       -2.8104901E-18
   37.02300       -2.7885158E-18
   37.18450       -2.7647151E-18
   37.34600       -2.7461720E-18
   37.50750       -2.7382207E-18
   37.66900       -2.7429756E-18
   37.83050       -2.7588066E-18
   37.99200       -2.7809095E-18
   38.15350       -2.8027991E-18
   38.31500       -2.8182831E-18
   38.47650       -2.8233306E-18
   38.63800       -2.8172899E-18
   38.79950       -2.8030839E-18
   38.96100       -2.7863320E-18
   39.12250       -2.7736615E-18
   39.28400       -2.7707180E-18
   39.44550       -2.7804680E-18
   39.60700       -2.8022900E-18
   39.76850       -2.8321196E-18
   39.93000       -2.8635930E-18
   40.09150       -2.8898471E-18
   40.25300       -2.9054514E-18
   40.41450       -2.9079183E-18
   40.57600       -2.8983550E-18
   40.73750       -2.8810854E-18
   40.89900       -2.8623508E-18
   41.06050       -2.8484767E-18
   41.22200       -2.8440326E-18
   41.38350       -2.8505405E-18
   41.54500       -2.8660915E-18
   41.70650       -2.8859918E-18
   41.86800       -2.9042251E-18
   42.02950       -2.9152990E-18
   42.19100       -2.9159068E-18
   42.35250       -2.9059240E-18
   42.51400       -2.8884473E-18
   42.67550       -2.8688849E-18
   42.83700       -2.8533709E-18
   42.99850       -2.8469813E-18
   43.16000       -2.8522643E-18
   43.32150       -2.8685013E-18
   43.48300       -2.8919126E-18
   43.64450       -2.9167360E-18
   43.80600       -2.9368740E-18
   43.96750       -2.9476250E-18
   44.12900       -2.9470092E-18
   44.29050       -2.9362927E-18
   44.45200       -2.9195733E-18
   44.61350       -2.9025474E-18
   44.77500       -2.8908368E-18
   44.93650       -2.8883722E-18
   45.09800       -2.8963010E-18
   45.25950       -2.9127261E-18
   45.42100       -2.9333272E-18
   45.58250       -2.9526677E-18
   45.74400       -2.9657891E-18
   45.90550       -2.9696500E-18
   46.06700       -2.9639935E-18
   46.22850       -2.9514081E-18
   46.39000       -2.9365667E-18
   46.55150       -2.9248600E-18
   46.71300       -2.9208169E-18
   46.87450       -2.9267749E-18
   47.03600       -2.9421892E-18
   47.19750       -2.9637883E-18
   47.35900       -2.9865280E-18
   47.52050       -3.0050452E-18
   47.68200       -3.0151898E-18
   47.84350       -3.0151819E-18
   48.00500       -3.0060782E-18
   48.16650       -2.9914402E-18
   48.32800       -2.9763127E-18
   48.48950       -2.9658048E-18
   48.65100       -2.9636758E-18
   48.81250       -2.9713010E-18
   48.97400       -2.9873127E-18
   49.13550       -3.0080119E-18
   49.29700       -3.0284509E-18
   49.45850       -3.0438671E-18
   49.62000       -3.0510569E-18
   49.78150       -3.0492752E-18
   49.94300       -3.0404035E-18
   50.10450       -3.0283471E-18
   50.26600       -3.0178527E-18
   50.42750       -3.0131158E-18
   50.58900       -3.0165740E-18
   50.75050       -3.0282158E-18
   50.91200       -3.0455872E-18
   51.07350       -3.0644734E-18
   51.23500       -3.0800775E-18
   51.39650       -3.0883704E-18
   51.55800       -3.0872492E-18
   51.71950       -3.0771694E-18
   51.88100       -3.0610613E-18
   52.04250       -3.0435377E-18
   52.20400       -3.0296197E-18
   52.36550       -3.0233524E-18
   52.52700       -3.0267167E-18
   52.68850       -3.0391426E-18
   52.85000       -3.0577428E-18
   53.01150       -3.0781717E-18
   53.17300       -3.0958537E-18
   53.33450       -3.1072415E-18
   53.49600       -3.1107701E-18
   53.65750       -3.1072579E-18
   53.81900       -3.0996449E-18
   53.98050       -3.0921227E-18
   54.14200       -3.0888922E-18
   54.30350       -3.0928875E-18
   54.46500       -3.1048590E-18
   54.62650       -3.1230884E-18
   54.78800       -3.1438316E-18
   54.94950       -3.1623497E-18
   55.11100       -3.1742227E-18
   55.27250       -3.1765619E-18
   55.43400       -3.1687937E-18
   55.59550       -3.1528303E-18
   55.75700       -3.1325942E-18
   55.91850       -3.1130297E-18
   56.08000       -3.0988376E-18
   56.24150       -3.0932591E-18
   56.40300       -3.0972196E-18
   56.56450       -3.1090942E-18
   56.72600       -3.1251918E-18
   56.88750       -3.1408389E-18
   57.04900       -3.1517581E-18
   57.21050       -3.1553193E-18
   57.37200       -3.1512887E-18
   57.53350       -3.1418640E-18
   57.69500       -3.1310112E-18
   57.85650       -3.1233068E-18
   58.01800       -3.1226285E-18
   58.17950       -3.1310333E-18
   58.34100       -3.1481059E-18
   58.50250       -3.1709667E-18
   58.66400       -3.1949481E-18
   58.82550       -3.2148193E-18
   58.98700       -3.2262387E-18
   59.14850       -3.2270326E-18
   59.31000       -3.2178978E-18
   59.47150       -3.2022819E-18
   59.63300       -3.1854415E-18
   59.79450       -3.1729546E-18
   59.95600       -3.1691297E-18
   60.11750       -3.1757811E-18
   60.27900       -3.1917194E-18
   60.44050       -3.2130830E-18
   60.60200       -3.2344172E-18
   60.76350       -3.2502087E-18
   60.92500       -3.2564746E-18
   61.08650       -3.2519710E-18
   61.24800       -3.2386485E-18
   61.40950       -3.2211836E-18
   61.57100       -3.2056495E-18
   61.73250       -3.1977074E-18
   61.89400       -3.2008428E-18
   62.05550       -3.2152293E-18
   62.21700       -3.2375773E-18
   62.37850       -3.2620444E-18
   62.54000       -3.2819268E-18
   62.70150       -3.2916335E-18
   62.86300       -3.2883777E-18
   63.02450       -3.2730929E-18
   63.18600       -3.2503094E-18
   63.34750       -3.2269881E-18
   63.50900       -3.2105884E-18
   63.67050       -3.2068918E-18
   63.83200       -3.2182126E-18
   63.99350       -3.2425714E-18
   64.15500       -3.2741560E-18
   64.31650       -3.3049747E-18
   64.47800       -3.3272333E-18
   64.63950       -3.3356803E-18
   64.80100       -3.3291939E-18
   64.96250       -3.3111116E-18
   65.12400       -3.2882249E-18
   65.28550       -3.2687461E-18
   65.44700       -3.2598534E-18
   65.60850       -3.2655085E-18
   65.77000       -3.2851765E-18
   65.93150       -3.3138348E-18
   66.09300       -3.3433288E-18
   66.25450       -3.3647441E-18
   66.41600       -3.3711324E-18
   66.57750       -3.3597593E-18
   66.73900       -3.3331342E-18
   66.90050       -3.2984309E-18
   67.06200       -3.2654462E-18
   67.22350       -3.2437042E-18
   67.38500       -3.2396320E-18
   67.54650       -3.2546610E-18
   67.70800       -3.2848254E-18
   67.86950       -3.3219404E-18
   68.03100       -3.3559973E-18
   68.19250       -3.3780813E-18
   68.35400       -3.3829780E-18
   68.51550       -3.3707232E-18
   68.67700       -3.3466156E-18
   68.83850       -3.3196385E-18
   69.00000       -3.2997116E-18
   69.16150       -3.2945905E-18
   69.32300       -3.3073859E-18
   69.48450       -3.3355068E-18
   69.64600       -3.3713946E-18
   69.80750       -3.4048166E-18
   69.96900       -3.4259904E-18
   70.13050       -3.4285662E-18
   70.29200       -3.4115685E-18
   70.45350       -3.3797440E-18
   70.61500       -3.3422280E-18
   70.77650       -3.3099291E-18
   70.93800       -3.2923672E-18
   71.09950       -3.2948883E-18
   71.26100       -3.3170658E-18
   71.42250       -3.3528248E-18
   71.58400       -3.3922784E-18
   71.74550       -3.4247527E-18
   71.90700       -3.4420561E-18
   72.06850       -3.4409498E-18
   72.23000       -3.4240461E-18
   72.39150       -3.3988787E-18
   72.55300       -3.3754776E-18
   72.71450       -3.3632421E-18
   72.87600       -3.3680530E-18
   73.03750       -3.3904750E-18
   73.19900       -3.4255348E-18
   73.36050       -3.4641427E-18
   73.52200       -3.4957525E-18
   73.68350       -3.5115178E-18
   73.84500       -3.5070154E-18
   74.00650       -3.4836790E-18
   74.16800       -3.4484568E-18
   74.32950       -3.4117517E-18
   74.49100       -3.3842722E-18
   74.65250       -3.3737984E-18
   74.81400       -3.3828957E-18
   74.97550       -3.4082652E-18
   75.13700       -3.4418772E-18
   75.29850       -3.4734766E-18
   75.46000       -3.4936738E-18
   75.62150       -3.4967137E-18
   75.78300       -3.4821541E-18
   75.94450       -3.4549955E-18
   76.10600       -3.4242047E-18
   76.26750       -3.4000411E-18
   76.42900       -3.3909345E-18
   76.59050       -3.4008573E-18
   76.75200       -3.4280311E-18
   76.91350       -3.4654113E-18
   77.07500       -3.5028282E-18
   77.23650       -3.5300996E-18
   77.39800       -3.5401138E-18
   77.55950       -3.5309300E-18
   77.72100       -3.5062830E-18
   77.88250       -3.4744022E-18
   78.04400       -3.4455495E-18
   78.20550       -3.4290020E-18
   78.36700       -3.4303422E-18
   78.52850       -3.4498076E-18
   78.69000       -3.4821826E-18
   78.85150       -3.5183019E-18
   79.01300       -3.5477619E-18
   79.17450       -3.5620597E-18
   79.33600       -3.5571777E-18
   79.49750       -3.5347984E-18
   79.65900       -3.5017595E-18
   79.82050       -3.4679349E-18
   79.98200       -3.4432326E-18
   80.14350       -3.4346518E-18
   80.30500       -3.4442754E-18
   80.46650       -3.4687414E-18
   80.62800       -3.5003016E-18
   80.78950       -3.5291537E-18
   80.95100       -3.5463677E-18
   81.11250       -3.5466101E-18
   81.27400       -3.5298431E-18
   81.43550       -3.5014688E-18
   81.59700       -3.4707994E-18
   81.75850       -3.4482817E-18
   81.92000       -3.4423129E-18
   82.08150       -3.4566645E-18
   82.24300       -3.4893220E-18
   82.40450       -3.5330877E-18
   82.56600       -3.5777133E-18
   82.72750       -3.6128743E-18
   82.88900       -3.6311020E-18
   83.05050       -3.6298336E-18
   83.21200       -3.6120537E-18
   83.37350       -3.5853536E-18
   83.53500       -3.5596564E-18
   83.69650       -3.5442443E-18
   83.85800       -3.5449197E-18
   84.01950       -3.5621871E-18
   84.18100       -3.5910557E-18
   84.34250       -3.6225817E-18
   84.50400       -3.6466849E-18
   84.66550       -3.6553421E-18
   84.82700       -3.6451244E-18
   84.98850       -3.6182873E-18
   85.15000       -3.5821284E-18
   85.31150       -3.5468471E-18
   85.47300       -3.5225933E-18
   85.63450       -3.5165541E-18
   85.79600       -3.5309015E-18
   85.95750       -3.5621565E-18
   86.11900       -3.6021772E-18
   86.28050       -3.6405278E-18
   86.44200       -3.6675625E-18
   86.60350       -3.6773141E-18
   86.76500       -3.6692706E-18
   86.92650       -3.6484397E-18
   87.08800       -3.6236781E-18
   87.24950       -3.6048126E-18
   87.41100       -3.5995103E-18
   87.57250       -3.6108857E-18
   87.73400       -3.6365610E-18
   87.89550       -3.6694203E-18
   88.05700       -3.6997742E-18
   88.21850       -3.7182786E-18
   88.38000       -3.7187563E-18
   88.54150       -3.7001100E-18
   88.70300       -3.6667519E-18
   88.86450       -3.6273772E-18
   89.02600       -3.5924107E-18
   89.18750       -3.5708787E-18
   89.34900       -3.5676928E-18
   89.51050       -3.5822219E-18
   89.67200       -3.6086193E-18
   89.83350       -3.6377654E-18
   89.99500       -3.6601812E-18
   90.15650       -3.6689517E-18
   90.31800       -3.6617764E-18
   90.47950       -3.6415510E-18
   90.64100       -3.6153769E-18
   90.80250       -3.5923188E-18
   90.96400       -3.5805840E-18
   91.12550       -3.5849607E-18
   91.28700       -3.6052766E-18
   91.44850       -3.6363989E-18
   91.61000       -3.6697971E-18
   91.77150       -3.6962193E-18
   91.93300       -3.7086204E-18
   92.09450       -3.7043708E-18
   92.25600       -3.6860277E-18
   92.41750       -3.6604409E-18
   92.57900       -3.6365325E-18
   92.74050       -3.6225002E-18
   92.90200       -3.6233427E-18
   93.06350       -3.6394260E-18
   93.22500       -3.6664772E-18
   93.38650       -3.6969564E-18
   93.54800       -3.7223942E-18
   93.70950       -3.7359960E-18
   93.87100       -3.7347403E-18
   94.03250       -3.7203139E-18
   94.19400       -3.6985549E-18
   94.35550       -3.6775569E-18
   94.51700       -3.6650483E-18
   94.67850       -3.6659214E-18
   94.84000       -3.6807325E-18
   95.00150       -3.7056500E-18
   95.16300       -3.7338143E-18
   95.32450       -3.7575924E-18
   95.48600       -3.7709750E-18
   95.64750       -3.7713695E-18
   95.80900       -3.7602828E-18
   95.97050       -3.7427454E-18
   96.13200       -3.7256819E-18
   96.29350       -3.7157280E-18
   96.45500       -3.7171574E-18
   96.61650       -3.7305540E-18
   96.77800       -3.7526666E-18
   96.93950       -3.7774981E-18
   97.10100       -3.7982740E-18
   97.26250       -3.8096109E-18
   97.42400       -3.8091663E-18
   97.58550       -3.7982198E-18
   97.74700       -3.7810620E-18
   97.90850       -3.7634646E-18
   98.07000       -3.7507868E-18
   98.23150       -3.7463415E-18
   98.39300       -3.7505080E-18
   98.55450       -3.7608048E-18
   98.71600       -3.7728576E-18
   98.87750       -3.7819297E-18
   99.03900       -3.7845250E-18
   99.20050       -3.7795495E-18
   99.36200       -3.7686493E-18
   99.52350       -3.7556088E-18
   99.68500       -3.7450288E-18
   99.84650       -3.7407655E-18
   100.0080       -3.7446814E-18
   100.1695       -3.7561478E-18
   100.3310       -3.7724110E-18
   100.4925       -3.7896403E-18
   100.6540       -3.8042297E-18
   100.8155       -3.8139094E-18
   100.9770       -3.8183158E-18
   101.1385       -3.8188869E-18
   101.3000       -3.8181702E-18
   101.4615       -3.8187910E-18
   101.6230       -3.8224306E-18
   101.7845       -3.8291667E-18
   101.9460       -3.8374174E-18
   102.1075       -3.8445229E-18
   102.2690       -3.8477762E-18
   102.4305       -3.8454940E-18
   102.5920       -3.8377272E-18
   102.7535       -3.8263022E-18
   102.9150       -3.8141902E-18
   103.0765       -3.8044501E-18
   103.2380       -3.7991682E-18
   103.3995       -3.7987835E-18
   103.5610       -3.8020356E-18
   103.7225       -3.8065193E-18
   103.8840       -3.8096262E-18
   104.0455       -3.8095485E-18
   104.2070       -3.8059916E-18
   104.3685       -3.8003610E-18
   104.5300       -3.7953259E-18
   104.6915       -3.7938796E-18
   104.8530       -3.7982037E-18
   105.0145       -3.8087407E-18
   105.1760       -3.8238376E-18
   105.3375       -3.8401546E-18
   105.4990       -3.8537228E-18
   105.6605       -3.8612894E-18
   105.8220       -3.8614677E-18
   105.9835       -3.8552547E-18
   106.1450       -3.8457277E-18
   106.3065       -3.8370187E-18
   106.4680       -3.8329167E-18
   106.6295       -3.8355629E-18
   106.7910       -3.8446867E-18
   106.9525       -3.8576337E-18
   107.1140       -3.8702209E-18
   107.2755       -3.8781486E-18
   107.4370       -3.8785345E-18
   107.5985       -3.8710303E-18
   107.7600       -3.8581081E-18
   107.9215       -3.8443699E-18
   108.0830       -3.8350699E-18
   108.2445       -3.8343420E-18
   108.4060       -3.8437433E-18
   108.5675       -3.8616307E-18
   108.7290       -3.8836006E-18
   108.8905       -3.9038595E-18
   109.0520       -3.9170807E-18
   109.2135       -3.9201466E-18
   109.3750       -3.9132161E-18
   109.5365       -3.8997475E-18
   109.6980       -3.8854435E-18
   109.8595       -3.8764194E-18
   110.0210       -3.8771626E-18
   110.1825       -3.8889636E-18
   110.3440       -3.9093627E-18
   110.5055       -3.9328488E-18
   110.6670       -3.9526172E-18
   110.8285       -3.9628122E-18
   110.9900       -3.9605064E-18
   111.1515       -3.9467442E-18
   111.3130       -3.9262893E-18
   111.4745       -3.9061479E-18
   111.6360       -3.8933489E-18
   111.7975       -3.8926818E-18
   111.9590       -3.9051139E-18
   112.1205       -3.9273998E-18
   112.2820       -3.9530217E-18
   112.4435       -3.9742083E-18
   112.6050       -3.9844033E-18
   112.7665       -3.9804026E-18
   112.9280       -3.9634512E-18
   113.0895       -3.9389195E-18
   113.2510       -3.9146244E-18
   113.4125       -3.8983480E-18
   113.5740       -3.8953391E-18
   113.7355       -3.9066388E-18
   113.8970       -3.9287477E-18
   114.0585       -3.9547480E-18
   114.2200       -3.9765099E-18
   114.3815       -3.9872806E-18
   114.5430       -3.9838429E-18
   114.7045       -3.9675623E-18
   114.8660       -3.9439864E-18
   115.0275       -3.9210958E-18
   115.1890       -3.9067616E-18
   115.3505       -3.9062041E-18
   115.5120       -3.9202811E-18
   115.6735       -3.9451656E-18
   115.8350       -3.9735354E-18
   115.9965       -3.9968755E-18
   116.1580       -4.0081574E-18
   116.3195       -4.0040343E-18
   116.4810       -3.9858661E-18
   116.6425       -3.9592715E-18
   116.8040       -3.9323666E-18
   116.9655       -3.9132475E-18
   117.1270       -3.9074933E-18
   117.2885       -3.9164649E-18
   117.4500       -3.9369368E-18
   117.6115       -3.9621711E-18
   117.7730       -3.9841129E-18
   117.9345       -3.9959917E-18
   118.0960       -3.9944932E-18
   118.2575       -3.9808001E-18
   118.4190       -3.9601665E-18
   118.5805       -3.9402008E-18
   118.7420       -3.9284226E-18