  -27.90000        9.3520213E-18
  -27.73850        9.3593832E-18
  -27.57700        9.3692415E-18
  -27.41550        9.3758606E-18
  -27.25400        9.3770832E-18
  -27.09250        9.3757903E-18
  -26.93100        9.3772520E-18
  -26.76950        9.3845667E-18
  -26.60800        9.3959553E-18
  -26.44650        9.4061288E-18
  -26.28500        9.4105948E-18
  -26.12350        9.4093515E-18
  -25.96200        9.4069320E-18
  -25.80050        9.4087452E-18
  -25.63900        9.4167035E-18
  -25.47750        9.4276918E-18
  -25.31600        9.4361414E-18
  -25.15450        9.4385667E-18
  -24.99300        9.4363730E-18
  -24.83150        9.4346492E-18
  -24.67000        9.4379736E-18
  -24.50850        9.4466764E-18
  -24.34700        9.4566307E-18
  -24.18550        9.4627163E-18
  -24.02400        9.4630661E-18
  -23.86250        9.4606094E-18
  -23.70100        9.4606235E-18
  -23.53950        9.4663310E-18
  -23.37800        9.4761869E-18
  -23.21650        9.4850931E-18
  -23.05500        9.4885648E-18
  -22.89350        9.4864175E-18
  -22.73200        9.4829425E-18
  -22.57050        9.4834148E-18
  -22.40900        9.4898072E-18
  -22.24750        9.4992173E-18
  -22.08600        9.5063087E-18
  -21.92450        9.5077380E-18
  -21.76300        9.5049207E-18
  -21.60150        9.5028568E-18
  -21.44000        9.5059720E-18
  -21.27850        9.5144068E-18
  -21.11700        9.5238250E-18
  -20.95550        9.5289197E-18
  -20.79400        9.5277608E-18
  -20.63250        9.5233982E-18
  -20.47100        9.5213964E-18
  -20.30950        9.5253024E-18
  -20.14800        9.5337553E-18
  -19.98650        9.5416094E-18
  -19.82500        9.5441547E-18
  -19.66350        9.5409915E-18
  -19.50200        9.5363808E-18
  -19.34050        9.5357861E-18
  -19.17900        9.5414225E-18
  -19.01750        9.5504636E-18
  -18.85600        9.5573556E-18
  -18.69450        9.5583334E-18
  -18.53300        9.5544514E-18
  -18.37150        9.5506439E-18
  -18.21000        9.5516142E-18
  -18.04850        9.5579338E-18
  -17.88700        9.5655513E-18
  -17.72550        9.5691272E-18
  -17.56400        9.5664538E-18
  -17.40250        9.5603343E-18
  -17.24100        9.5563969E-18
  -17.07950        9.5586146E-18
  -16.91800        9.5661874E-18
  -16.75650        9.5742938E-18
  -16.59500        9.5780550E-18
  -16.43350        9.5764453E-18
  -16.27200        9.5729372E-18
  -16.11050        9.5724260E-18
  -15.94900        9.5769970E-18
  -15.78750        9.5840785E-18
  -15.62600        9.5884924E-18
  -15.46450        9.5867379E-18
  -15.30300        9.5799451E-18
  -15.14150        9.5730754E-18
  -14.98000        9.5709992E-18
  -14.81850        9.5746603E-18
  -14.65700        9.5804547E-18
  -14.49550        9.5832993E-18
  -14.33400        9.5808360E-18
  -14.17250        9.5753261E-18
  -14.01100        9.5716849E-18
  -13.84950        9.5733393E-18
  -13.68800        9.5793380E-18
  -13.52650        9.5851340E-18
  -13.36500        9.5863839E-18
  -13.20350        9.5826202E-18
  -13.04200        9.5777175E-18
  -12.88050        9.5767580E-18
  -12.71900        9.5818327E-18
  -12.55750        9.5902543E-18
  -12.39600        9.5966467E-18
  -12.23450        9.5972315E-18
  -12.07300        9.5928152E-18
  -11.91150        9.5880523E-18
  -11.75000        9.5876007E-18
  -11.58850        9.5923528E-18
  -11.42700        9.5988230E-18
  -11.26550        9.6021665E-18
  -11.10400        9.6003219E-18
  -10.94250        9.5958270E-18
  -10.78100        9.5937946E-18
  -10.61950        9.5976881E-18
  -10.45800        9.6063686E-18
  -10.29650        9.6148596E-18
  -10.13500        9.6182312E-18
  -9.973500        9.6154560E-18
  -9.812000        9.6101140E-18
  -9.650500        9.6074001E-18
  -9.489000        9.6098907E-18
  -9.327500        9.6155437E-18
  -9.166000        9.6195067E-18
  -9.004500        9.6182287E-18
  -8.843000        9.6124566E-18
  -8.681500        9.6066680E-18
  -8.520000        9.6054173E-18
  -8.358500        9.6096194E-18
  -8.197000        9.6158216E-18
  -8.035500        9.6190674E-18
  -7.874000        9.6169714E-18
  -7.712500        9.6116667E-18
  -7.551000        9.6080296E-18
  -7.389500        9.6096682E-18
  -7.228000        9.6159589E-18
  -7.066500        9.6225714E-18
  -6.905000        9.6250107E-18
  -6.743500        9.6222628E-18
  -6.582000        9.6175471E-18
  -6.420500        9.6156040E-18
  -6.259000        9.6187746E-18
  -6.097500        9.6251224E-18
  -5.936000        9.6301277E-18
  -5.774500        9.6305107E-18
  -5.613000        9.6270084E-18
  -5.451500        9.6237749E-18
  -5.290000        9.6249206E-18
  -5.128500        9.6310409E-18
  -4.967000        9.6386377E-18
  -4.805500        9.6429200E-18
  -4.644000        9.6416817E-18
  -4.482500        9.6370909E-18
  -4.321000        9.6338922E-18
  -4.159500        9.6355399E-18
  -3.998000        9.6414162E-18
  -3.836500        9.6474373E-18
  -3.675000        9.6495069E-18
  -3.513500        9.6469476E-18
  -3.352000        9.6430664E-18
  -3.190500        9.6423890E-18
  -3.029000        9.6468541E-18
  -2.867500        9.6541391E-18
  -2.706000        9.6595265E-18
  -2.544500        9.6597796E-18
  -2.383000        9.6558522E-18
  -2.221500        9.6521737E-18
  -2.060000        9.6530836E-18
  -1.898500        9.6593114E-18
  -1.737000        9.6673847E-18
  -1.575500        9.6724156E-18
  -1.414000        9.6719954E-18
  -1.252500        9.6679927E-18
  -1.091000        9.6648370E-18
 -0.9295000        9.6657403E-18
 -0.7680000        9.6700052E-18
 -0.6065000        9.6736498E-18
 -0.4450000        9.6728185E-18
 -0.2835000        9.6671440E-18
 -0.1220000        9.6602610E-18
  3.9500002E-02    9.6570152E-18
  0.2010000        9.6596390E-18
  0.3625000        9.6660066E-18
  0.5240000        9.6713759E-18
  0.6855000        9.6721824E-18
  0.8470000        9.6687744E-18
   1.008500        9.6648990E-18
   1.170000        9.6644391E-18
   1.331500        9.6681490E-18
   1.493000        9.6730766E-18
   1.654500        9.6751453E-18
   1.816000        9.6726828E-18
   1.977500        9.6679547E-18
   2.139000        9.6654028E-18
   2.300500        9.6680332E-18
   2.462000        9.6749460E-18
   2.623500        9.6820349E-18
   2.785000        9.6852973E-18
   2.946500        9.6840086E-18
   3.108000        9.6811962E-18
   3.269500        9.6810382E-18
   3.431000        9.6853792E-18
   3.592500        9.6922407E-18
   3.754000        9.6975297E-18
   3.915500        9.6984851E-18
   4.077000        9.6959638E-18
   4.238500        9.6936692E-18
   4.400000        9.6949770E-18
   4.561500        9.7000079E-18
   4.723000        9.7054259E-18
   4.884500        9.7071564E-18
   5.046000        9.7037823E-18
   5.207500        9.6978258E-18
   5.369000        9.6938239E-18
   5.530500        9.6947809E-18
   5.692000        9.6998648E-18
   5.853500        9.7052332E-18
   6.015000        9.7072515E-18
   6.176500        9.7054375E-18
   6.338000        9.7027136E-18
   6.499500        9.7027947E-18
   6.661000        9.7069314E-18
   6.822500        9.7127275E-18
   6.984000        9.7160511E-18
   7.145500        9.7144612E-18
   7.307000        9.7093178E-18
   7.468500        9.7048105E-18
   7.630000        9.7046765E-18
   7.791500        9.7092731E-18
   7.953000        9.7153835E-18
   8.114500        9.7188784E-18
   8.276000        9.7180413E-18
   8.437500        9.7148541E-18
   8.599000        9.7132271E-18
   8.760500        9.7156995E-18
   8.922000        9.7213417E-18
   9.083500        9.7265670E-18
   9.245000        9.7281519E-18
   9.406500        9.7259293E-18
   9.568000        9.7229100E-18
   9.729500        9.7227438E-18
   9.891000        9.7266282E-18
   10.05250        9.7322258E-18
   10.21400        9.7354964E-18
   10.37550        9.7339521E-18
   10.53700        9.7286763E-18
   10.69850        9.7234767E-18
   10.86000        9.7219042E-18
   11.02150        9.7245719E-18
   11.18300        9.7289328E-18
   11.34450        9.7316128E-18
   11.50600        9.7313043E-18
   11.66750        9.7297947E-18
   11.82900        9.7303009E-18
   11.99050        9.7345410E-18
   12.15200        9.7410319E-18
   12.31350        9.7460661E-18
   12.47500        9.7466154E-18
   12.63650        9.7427707E-18
   12.79800        9.7377232E-18
   12.95950        9.7352756E-18
   13.12100        9.7369167E-18
   13.28250        9.7408135E-18
   13.44400        9.7434944E-18
   13.60550        9.7427980E-18
   13.76700        9.7396406E-18
   13.92850        9.7371682E-18
   14.09000        9.7380392E-18
   14.25150        9.7421230E-18
   14.41300        9.7465476E-18
   14.57450        9.7480721E-18
   14.73600        9.7458130E-18
   14.89750        9.7420593E-18
   15.05900        9.7404628E-18
   15.22050        9.7430734E-18
   15.38200        9.7486238E-18
   15.54350        9.7534884E-18
   15.70500        9.7545431E-18
   15.86650        9.7516198E-18
   16.02800        9.7475824E-18
   16.18950        9.7460008E-18
   16.35100        9.7483293E-18
   16.51250        9.7528871E-18
   16.67400        9.7564332E-18
   16.83550        9.7569659E-18
   16.99700        9.7554224E-18
   17.15850        9.7548607E-18
   17.32000        9.7577914E-18
   17.48150        9.7638911E-18
   17.64300        9.7700072E-18
   17.80450        9.7725152E-18
   17.96600        9.7701321E-18
   18.12750        9.7649242E-18
   18.28900        9.7607097E-18
   18.45050        9.7601249E-18
   18.61200        9.7627314E-18
   18.77350        9.7656364E-18
   18.93500        9.7660426E-18
   19.09650        9.7636131E-18
   19.25800        9.7606932E-18
   19.41950        9.7602647E-18
   19.58100        9.7633559E-18
   19.74250        9.7680915E-18
   19.90400        9.7712058E-18
   20.06550        9.7707616E-18
   20.22700        9.7678392E-18
   20.38850        9.7657621E-18
   20.55000        9.7674570E-18
   20.71150        9.7730827E-18
   20.87300        9.7798573E-18
   21.03450        9.7842223E-18
   21.19600        9.7845871E-18
   21.35750        9.7824348E-18
   21.51900        9.7809417E-18
   21.68050        9.7822834E-18
   21.84200        9.7858891E-18
   22.00350        9.7890837E-18
   22.16500        9.7895428E-18
   22.32650        9.7874798E-18
   22.48800        9.7856699E-18
   22.64950        9.7872258E-18
   22.81100        9.7929251E-18
   22.97250        9.8003102E-18
   23.13400        9.8053733E-18
   23.29550        9.8055222E-18
   23.45700        9.8014575E-18
   23.61850        9.7964737E-18
   23.78000        9.7937655E-18
   23.94150        9.7939558E-18
   24.10300        9.7948541E-18
   24.26450        9.7935918E-18
   24.42600        9.7893227E-18
   24.58750        9.7841818E-18
   24.74900        9.7816622E-18
   24.91050        9.7837136E-18
   25.07200        9.7889761E-18
   25.23350        9.7936704E-18
   25.39500        9.7944876E-18
   25.55650        9.7911682E-18
   25.71800        9.7866658E-18
   25.87950        9.7847617E-18
   26.04100        9.7870513E-18
   26.20250        9.7917613E-18
   26.36400        9.7953264E-18
   26.52550        9.7954149E-18
   26.68700        9.7928796E-18
   26.84850        9.7910325E-18
   27.01000        9.7928382E-18
   27.17150        9.7983713E-18
   27.33300        9.8046752E-18
   27.49450        9.8081502E-18
   27.65600        9.8075381E-18
   27.81750        9.8049970E-18
   27.97900        9.8043758E-18
   28.14050        9.8080592E-18
   28.30200        9.8149835E-18
   28.46350        9.8214380E-18
   28.62500        9.8240147E-18
   28.78650        9.8222602E-18
   28.94800        9.8188812E-18
   29.10950        9.8173559E-18
   29.27100        9.8189689E-18
   29.43250        9.8217548E-18
   29.59400        9.8222362E-18
   29.75550        9.8184990E-18
   29.91700        9.8120115E-18
   30.07850        9.8066315E-18
   30.24000        9.8055743E-18
   30.40150        9.8088533E-18
   30.56300        9.8133126E-18
   30.72450        9.8152449E-18
   30.88600        9.8134301E-18
   31.04750        9.8100767E-18
   31.20900        9.8088955E-18
   31.37050        9.8118981E-18
   31.53200        9.8176181E-18
   31.69350        9.8222487E-18
   31.85500        9.8227582E-18
   32.01650        9.8193957E-18
   32.17800        9.8154740E-18
   32.33950        9.8145964E-18
   32.50100        9.8176388E-18
   32.66250        9.8220228E-18
   32.82400        9.8239187E-18
   32.98550        9.8215530E-18
   33.14700        9.8168596E-18
   33.30850        9.8140463E-18
   33.47000        9.8162259E-18
   33.63150        9.8228666E-18
   33.79300        9.8301896E-18
   33.95450        9.8341907E-18
   34.11600        9.8337953E-18
   34.27750        9.8315561E-18
   34.43900        9.8313336E-18
   34.60050        9.8349177E-18
   34.76200        9.8404450E-18
   34.92350        9.8439489E-18
   35.08500        9.8427718E-18
   35.24650        9.8379609E-18
   35.40800        9.8336282E-18
   35.56950        9.8337225E-18
   35.73100        9.8388750E-18
   35.89250        9.8458911E-18
   36.05400        9.8503405E-18
   36.21550        9.8500924E-18
   36.37700        9.8469011E-18
   36.53850        9.8447686E-18
   36.70000        9.8464751E-18
   36.86150        9.8512025E-18
   37.02300        9.8552292E-18
   37.18450        9.8551018E-18
   37.34600        9.8505961E-18
   37.50750        9.8449837E-18
   37.66900        9.8423458E-18
   37.83050        9.8441747E-18
   37.99200        9.8481179E-18
   38.15350        9.8499269E-18
   38.31500        9.8470078E-18
   38.47650        9.8406236E-18
   38.63800        9.8349310E-18
   38.79950        9.8336431E-18
   38.96100        9.8370957E-18
   39.12250        9.8421324E-18
   39.28400        9.8448522E-18
   39.44550        9.8438844E-18
   39.60700        9.8414244E-18
   39.76850        9.8411870E-18
   39.93000        9.8450317E-18
   40.09150        9.8511586E-18
   40.25300        9.8554418E-18
   40.41450        9.8548379E-18
   40.57600        9.8500097E-18
   40.73750        9.8449564E-18
   40.89900        9.8438976E-18
   41.06050        9.8479764E-18
   41.22200        9.8544731E-18
   41.38350        9.8591599E-18
   41.54500        9.8597977E-18
   41.70650        9.8578505E-18
   41.86800        9.8570233E-18
   42.02950        9.8599011E-18
   42.19100        9.8655565E-18
   42.35250        9.8701962E-18
   42.51400        9.8703078E-18
   42.67550        9.8656897E-18
   42.83700        9.8597588E-18
   42.99850        9.8568546E-18
   43.16000        9.8587364E-18
   43.32150        9.8631842E-18
   43.48300        9.8658750E-18
   43.64450        9.8639783E-18
   43.80600        9.8585040E-18
   43.96750        9.8534631E-18
   44.12900        9.8525838E-18
   44.29050        9.8563103E-18
   44.45200        9.8615910E-18
   44.61350        9.8645730E-18
   44.77500        9.8638947E-18
   44.93650        9.8617945E-18
   45.09800        9.8620964E-18
   45.25950        9.8667783E-18
   45.42100        9.8740492E-18
   45.58250        9.8795805E-18
   45.74400        9.8799280E-18
   45.90550        9.8753123E-18
   46.06700        9.8694674E-18
   46.22850        9.8666939E-18
   46.39000        9.8685402E-18
   46.55150        9.8728324E-18
   46.71300        9.8757689E-18
   46.87450        9.8752552E-18
   47.03600        9.8726512E-18
   47.19750        9.8714824E-18
   47.35900        9.8742634E-18
   47.52050        9.8801513E-18
   47.68200        9.8854618E-18
   47.84350        9.8866207E-18
   48.00500        9.8830994E-18
   48.16650        9.8778600E-18
   48.32800        9.8749384E-18
   48.48950        9.8761750E-18
   48.65100        9.8798121E-18
   48.81250        9.8820910E-18
   48.97400        9.8804846E-18
   49.13550        9.8758524E-18
   49.29700        9.8717298E-18
   49.45850        9.8713997E-18
   49.62000        9.8752188E-18
   49.78150        9.8804474E-18
   49.94300        9.8836718E-18
   50.10450        9.8837322E-18
   50.26600        9.8826610E-18
   50.42750        9.8838331E-18
   50.58900        9.8889120E-18
   50.75050        9.8961903E-18
   50.91200        9.9017630E-18
   51.07350        9.9025952E-18
   51.23500        9.8989316E-18
   51.39650        9.8940794E-18
   51.55800        9.8917335E-18
   51.71950        9.8930917E-18
   51.88100        9.8961126E-18
   52.04250        9.8974675E-18
   52.20400        9.8954740E-18
   52.36550        9.8915242E-18
   52.52700        9.8888251E-18
   52.68850        9.8895671E-18
   52.85000        9.8929618E-18
   53.01150        9.8958313E-18
   53.17300        9.8952705E-18
   53.33450        9.8911520E-18
   53.49600        9.8863394E-18
   53.65750        9.8844237E-18
   53.81900        9.8868399E-18
   53.98050        9.8917393E-18
   54.14200        9.8955203E-18
   54.30350        9.8957230E-18
   54.46500        9.8929006E-18
   54.62650        9.8899749E-18
   54.78800        9.8897027E-18
   54.94950        9.8924275E-18
   55.11100        9.8959753E-18
   55.27250        9.8977264E-18
   55.43400        9.8970051E-18
   55.59550        9.8957478E-18
   55.75700        9.8968306E-18
   55.91850        9.9014983E-18
   56.08000        9.9080587E-18
   56.24150        9.9129829E-18
   56.40300        9.9135495E-18
   56.56450        9.9098702E-18
   56.72600        9.9047086E-18
   56.88750        9.9012866E-18
   57.04900        9.9009259E-18
   57.21050        9.9024198E-18
   57.37200        9.9035059E-18
   57.53350        9.9030882E-18
   57.69500        9.9022469E-18
   57.85650        9.9032106E-18
   58.01800        9.9072158E-18
   58.17950        9.9131426E-18
   58.34100        9.9181454E-18
   58.50250        9.9197948E-18
   58.66400        9.9179576E-18
   58.82550        9.9148805E-18
   58.98700        9.9133932E-18
   59.14850        9.9147357E-18
   59.31000        9.9177425E-18
   59.47150        9.9199875E-18
   59.63300        9.9198469E-18
   59.79450        9.9177450E-18
   59.95600        9.9156100E-18
   60.11750        9.9150922E-18
   60.27900        9.9161328E-18
   60.44050        9.9170998E-18
   60.60200        9.9163495E-18
   60.76350        9.9138341E-18
   60.92500        9.9113360E-18
   61.08650        9.9111094E-18
   61.24800        9.9140351E-18
   61.40950        9.9188121E-18
   61.57100        9.9228611E-18
   61.73250        9.9241846E-18
   61.89400        9.9226857E-18
   62.05550        9.9199561E-18
   62.21700        9.9177971E-18
   62.37850        9.9167888E-18
   62.54000        9.9160675E-18
   62.70150        9.9144115E-18
   62.86300        9.9116189E-18
   63.02450        9.9089364E-18
   63.18600        9.9081638E-18
   63.34750        9.9101804E-18
   63.50900        9.9141534E-18
   63.67050        9.9180891E-18
   63.83200        9.9202820E-18
   63.99350        9.9204921E-18
   64.15500        9.9199279E-18
   64.31650        9.9201215E-18
   64.47800        9.9216758E-18
   64.63950        9.9238843E-18
   64.80100        9.9254692E-18
   64.96250        9.9257389E-18
   65.12400        9.9251632E-18
   65.28550        9.9249158E-18
   65.44700        9.9258299E-18
   65.60850        9.9276712E-18
   65.77000        9.9293404E-18
   65.93150        9.9297970E-18
   66.09300        9.9289186E-18
   66.25450        9.9275793E-18
   66.41600        9.9269366E-18
   66.57750        9.9275372E-18
   66.73900        9.9289789E-18
   66.90050        9.9303430E-18
   67.06200        9.9309857E-18
   67.22350        9.9309964E-18
   67.38500        9.9309989E-18
   67.54650        9.9315176E-18
   67.70800        9.9324961E-18
   67.86950        9.9333522E-18
   68.03100        9.9334929E-18
   68.19250        9.9328080E-18
   68.35400        9.9317326E-18
   68.51550        9.9308781E-18
   68.67700        9.9305680E-18
   68.83850        9.9306813E-18
   69.00000        9.9308856E-18
   69.16150        9.9309939E-18
   69.32300        9.9311139E-18
   69.48450        9.9314787E-18
   69.64600        9.9321528E-18
   69.80750        9.9329056E-18
   69.96900        9.9333680E-18
   70.13050        9.9333109E-18
   70.29200        9.9327947E-18
   70.45350        9.9320693E-18
   70.61500        9.9313587E-18
   70.77650        9.9307483E-18
   70.93800        9.9302776E-18
   71.09950        9.9301006E-18
   71.26100        9.9305100E-18
   71.42250        9.9317417E-18
   71.58400        9.9337220E-18
   71.74550        9.9360199E-18
   71.90700        9.9380804E-18
   72.06850        9.9395842E-18
   72.23000        9.9406058E-18
   72.39150        9.9414503E-18
   72.55300        9.9422974E-18
   72.71450        9.9430063E-18
   72.87600        9.9432710E-18
   73.03750        9.9429988E-18
   73.19900        9.9425323E-18
   73.36050        9.9424694E-18
   73.52200        9.9431700E-18
   73.68350        9.9443786E-18
   73.84500        9.9453373E-18
   74.00650        9.9453455E-18
   74.16800        9.9443339E-18
   74.32950        9.9429500E-18
   74.49100        9.9420550E-18
   74.65250        9.9420327E-18
   74.81400        9.9425182E-18
   74.97550        9.9427738E-18
   75.13700        9.9424082E-18
   75.29850        9.9417779E-18
   75.46000        9.9416869E-18
   75.62150        9.9425993E-18
   75.78300        9.9440651E-18
   75.94450        9.9449253E-18
   76.10600        9.9442024E-18
   76.26750        9.9419665E-18
   76.42900        9.9394312E-18
   76.59050        9.9381135E-18
   76.75200        9.9387198E-18
   76.91350        9.9406562E-18
   77.07500        9.9425885E-18
   77.23650        9.9435812E-18
   77.39800        9.9438508E-18
   77.55950        9.9444679E-18
   77.72100        9.9462629E-18
   77.88250        9.9488883E-18
   78.04400        9.9509141E-18
   78.20550        9.9509480E-18
   78.36700        9.9488817E-18
   78.52850        9.9461553E-18
   78.69000        9.9447417E-18
   78.85150        9.9456119E-18
   79.01300        9.9479305E-18
   79.17450        9.9496866E-18
   79.33600        9.9492672E-18
   79.49750        9.9467046E-18
   79.65900        9.9435663E-18
   79.82050        9.9415910E-18
   79.98200        9.9412287E-18
   80.14350        9.9413436E-18
   80.30500        9.9403394E-18
   80.46650        9.9377471E-18
   80.62800        9.9348751E-18
   80.78950        9.9338899E-18
   80.95100        9.9360356E-18
   81.11250        9.9404693E-18
   81.27400        9.9447533E-18
   81.43550        9.9466566E-18
   81.59700        9.9458443E-18
   81.75850        9.9440436E-18
   81.92000        9.9435712E-18
   82.08150        9.9454142E-18
   82.24300        9.9484781E-18
   82.40450        9.9505923E-18
   82.56600        9.9504203E-18
   82.72750        9.9486253E-18
   82.88900        9.9472894E-18
   83.05050        9.9480703E-18
   83.21200        9.9506924E-18
   83.37350        9.9530805E-18
   83.53500        9.9530888E-18
   83.69650        9.9503798E-18
   83.85800        9.9468386E-18
   84.01950        9.9451090E-18
   84.18100        9.9464457E-18
   84.34250        9.9496593E-18
   84.50400        9.9520606E-18
   84.66550        9.9516453E-18
   84.82700        9.9487088E-18
   84.98850        9.9455540E-18
   85.15000        9.9445547E-18
   85.31150        9.9462182E-18
   85.47300        9.9488743E-18
   85.63450        9.9502507E-18
   85.79600        9.9495451E-18
   85.95750        9.9481968E-18
   86.11900        9.9486369E-18
   86.28050        9.9520606E-18
   86.44200        9.9571502E-18
   86.60350        9.9609065E-18
   86.76500        9.9609908E-18
   86.92650        9.9576532E-18
   87.08800        9.9536397E-18
   87.24950        9.9520738E-18
   87.41100        9.9540557E-18
   87.57250        9.9579112E-18
   87.73400        9.9606897E-18
   87.89550        9.9606343E-18
   88.05700        9.9585333E-18
   88.21850        9.9568599E-18
   88.38000        9.9574604E-18
   88.54150        9.9598113E-18
   88.70300        9.9613961E-18
   88.86450        9.9599147E-18
   89.02600        9.9554586E-18
   89.18750        9.9507478E-18
   89.34900        9.9491257E-18
   89.51050        9.9518927E-18
   89.67200        9.9571734E-18
   89.83350        9.9612754E-18
   89.99500        9.9614681E-18
   90.15650        9.9579501E-18
   90.31800        9.9534486E-18
   90.47950        9.9508744E-18
   90.64100        9.9510142E-18
   90.80250        9.9521822E-18
   90.96400        9.9520341E-18
   91.12550        9.9499223E-18
   91.28700        9.9476931E-18
   91.44850        9.9482092E-18
   91.61000        9.9528108E-18
   91.77150        9.9598849E-18
   91.93300        9.9658365E-18
   92.09450        9.9677216E-18
   92.25600        9.9654336E-18
   92.41750        9.9616650E-18
   92.57900        9.9596913E-18
   92.74050        9.9608163E-18
   92.90200        9.9635402E-18
   93.06350        9.9650572E-18
   93.22500        9.9637354E-18
   93.38650        9.9604540E-18
   93.54800        9.9577135E-18
   93.70950        9.9573421E-18
   93.87100        9.9588211E-18
   94.03250        9.9597120E-18
   94.19400        9.9578360E-18
   94.35550        9.9533411E-18
   94.51700        9.9488520E-18
   94.67850        9.9474979E-18
   94.84000        9.9504219E-18
   95.00150        9.9558218E-18
   95.16300        9.9603258E-18
   95.32450        9.9615690E-18
   95.48600        9.9598634E-18
   95.64750        9.9576540E-18
   95.80900        9.9572942E-18
   95.97050        9.9590858E-18
   96.13200        9.9612200E-18
   96.29350        9.9616079E-18
   96.45500        9.9599610E-18
   96.61650        9.9582677E-18
   96.77800        9.9591983E-18
   96.93950        9.9637511E-18
   97.10100        9.9701709E-18
   97.26250        9.9751009E-18
   97.42400        9.9760885E-18
   97.58550        9.9734217E-18
   97.74700        9.9697978E-18
   97.90850        9.9681277E-18
   98.07000        9.9692775E-18
   98.23150        9.9715729E-18
   98.39300        9.9723952E-18
   98.55450        9.9704596E-18
   98.71600        9.9668489E-18
   98.87750        9.9639860E-18
   99.03900        9.9634641E-18
   99.20050        9.9646370E-18
   99.36200        9.9651896E-18
   99.52350        9.9631920E-18
   99.68500        9.9589088E-18
   99.84650        9.9547928E-18
   100.0080        9.9536264E-18
   100.1695        9.9563247E-18
   100.3310        9.9611778E-18
   100.4925        9.9651458E-18
   100.6540        9.9661136E-18
   100.8155        9.9643144E-18
   100.9770        9.9618312E-18
   101.1385        9.9607212E-18
   101.3000        9.9613970E-18
   101.4615        9.9625592E-18
   101.6230        9.9626518E-18
   101.7845        9.9614615E-18
   101.9460        9.9604556E-18
   102.1075        9.9615343E-18
   102.2690        9.9652864E-18
   102.4305        9.9702470E-18
   102.5920        9.9738477E-18
   102.7535        9.9742919E-18
   102.9150        9.9718484E-18
   103.0765        9.9685389E-18
   103.2380        9.9665205E-18
   103.3995        9.9665073E-18
   103.5610        9.9674776E-18
   103.7225        9.9677886E-18
   103.8840        9.9666554E-18
   104.0455        9.9647297E-18
   104.2070        9.9633400E-18
   104.3685        9.9631506E-18
   104.5300        9.9634699E-18
   104.6915        9.9628528E-18
   104.8530        9.9604879E-18
   105.0145        9.9571568E-18
   105.1760        9.9548929E-18
   105.3375        9.9555546E-18
   105.4990        9.9594448E-18
   105.6605        9.9650688E-18
   105.8220        9.9701932E-18
   105.9835        9.9733539E-18
   106.1450        9.9746004E-18
   106.3065        9.9750165E-18
   106.4680        9.9755227E-18
   106.6295        9.9760521E-18
   106.7910        9.9757742E-18
   106.9525        9.9740958E-18
   107.1140        9.9715026E-18
   107.2755        9.9694347E-18
   107.4370        9.9692552E-18
   107.5985        9.9711436E-18
   107.7600        9.9738502E-18
   107.9215        9.9755368E-18
   108.0830        9.9750546E-18
   108.2445        9.9726698E-18
   108.4060        9.9697283E-18
   108.5675        9.9675909E-18
   108.7290        9.9667058E-18
   108.8905        9.9665164E-18
   109.0520        9.9661566E-18
   109.2135        9.9652599E-18
   109.3750        9.9642102E-18
   109.5365        9.9636668E-18
   109.6980        9.9638554E-18
   109.8595        9.9642855E-18
   110.0210        9.9641399E-18
   110.1825        9.9630058E-18
   110.3440        9.9613225E-18
   110.5055        9.9601479E-18
   110.6670        9.9604374E-18
   110.8285        9.9623970E-18
   110.9900        9.9653881E-18
   111.1515        9.9684206E-18
   111.3130        9.9707871E-18
   111.4745        9.9723728E-18
   111.6360        9.9734705E-18
   111.7975        9.9743531E-18
   111.9590        9.9750132E-18
   112.1205        9.9752539E-18
   112.2820        9.9749925E-18
   112.4435        9.9744466E-18
   112.6050        9.9740222E-18
   112.7665        9.9739875E-18
   112.9280        9.9742414E-18
   113.0895        9.9743862E-18
   113.2510        9.9740553E-18
   113.4125        9.9732290E-18
   113.5740        9.9722802E-18
   113.7355        9.9717359E-18
   113.8970        9.9719328E-18
   114.0585        9.9728377E-18
   114.2200        9.9741174E-18
   114.3815        9.9753623E-18
   114.5430        9.9762730E-18
   114.7045        9.9766775E-18
   114.8660        9.9764575E-18
   115.0275        9.9754905E-18
   115.1890        9.9737236E-18
   115.3505        9.9712950E-18
   115.5120        9.9685976E-18
   115.6735        9.9661797E-18
   115.8350        9.9645262E-18
   115.9965        9.9638504E-18
   116.1580        9.9640241E-18
   116.3195        9.9646809E-18
   116.4810        9.9654055E-18
   116.6425        9.9659043E-18
   116.8040        9.9660739E-18
   116.9655        9.9659829E-18
   117.1270        9.9658050E-18
   117.2885        9.9657347E-18
   117.4500        9.9659283E-18
   117.6115        9.9664436E-18
   117.7730        9.9672245E-18
   117.9345        9.9681211E-18
   118.0960        9.9689359E-18
   118.2575        9.9694909E-18
   118.4190        9.9696671E-18
   118.5805        9.9694256E-18
   118.7420        9.9688292E-18