  -27.90000        5.8464737E-18
  -27.73850        5.8620536E-18
  -27.57700        5.8893523E-18
  -27.41550        5.9220420E-18
  -27.25400        5.9530377E-18
  -27.09250        5.9764192E-18
  -26.93100        5.9890441E-18
  -26.76950        5.9913602E-18
  -26.60800        5.9871908E-18
  -26.44650        5.9825155E-18
  -26.28500        5.9836355E-18
  -26.12350        5.9952529E-18
  -25.96200        6.0190517E-18
  -25.80050        6.0531828E-18
  -25.63900        6.0927738E-18
  -25.47750        6.1312935E-18
  -25.31600        6.1623678E-18
  -25.15450        6.1815480E-18
  -24.99300        6.1875401E-18
  -24.83150        6.1825836E-18
  -24.67000        6.1718514E-18
  -24.50850        6.1620253E-18
  -24.34700        6.1594304E-18
  -24.18550        6.1682519E-18
  -24.02400        6.1893566E-18
  -23.86250        6.2200719E-18
  -23.70100        6.2550000E-18
  -23.53950        6.2876099E-18
  -23.37800        6.3121317E-18
  -23.21650        6.3251921E-18
  -23.05500        6.3267261E-18
  -22.89350        6.3199432E-18
  -22.73200        6.3103777E-18
  -22.57050        6.3043041E-18
  -22.40900        6.3069689E-18
  -22.24750        6.3211046E-18
  -22.08600        6.3461454E-18
  -21.92450        6.3783736E-18
  -21.76300        6.4119679E-18
  -21.60150        6.4406793E-18
  -21.44000        6.4596399E-18
  -21.27850        6.4667781E-18
  -21.11700        6.4634032E-18
  -20.95550        6.4538025E-18
  -20.79400        6.4439744E-18
  -20.63250        6.4398947E-18
  -20.47100        6.4458219E-18
  -20.30950        6.4631232E-18
  -20.14800        6.4899185E-18
  -19.98650        6.5216297E-18
  -19.82500        6.5522651E-18
  -19.66350        6.5760937E-18
  -19.50200        6.5892571E-18
  -19.34050        6.5908721E-18
  -19.17900        6.5832943E-18
  -19.01750        6.5714549E-18
  -18.85600        6.5614439E-18
  -18.69450        6.5587449E-18
  -18.53300        6.5666597E-18
  -18.37150        6.5853776E-18
  -18.21000        6.6119669E-18
  -18.04850        6.6412623E-18
  -17.88700        6.6673702E-18
  -17.72550        6.6853486E-18
  -17.56400        6.6925910E-18
  -17.40250        6.6895593E-18
  -17.24100        6.6796617E-18
  -17.07950        6.6683219E-18
  -16.91800        6.6614712E-18
  -16.75650        6.6638688E-18
  -16.59500        6.6777137E-18
  -16.43350        6.7019617E-18
  -16.27200        6.7325673E-18
  -16.11050        6.7636061E-18
  -15.94900        6.7889534E-18
  -15.78750        6.8040213E-18
  -15.62600        6.8070426E-18
  -15.46450        6.7995338E-18
  -15.30300        6.7858283E-18
  -15.14150        6.7718365E-18
  -14.98000        6.7633984E-18
  -14.81850        6.7646789E-18
  -14.65700        6.7770287E-18
  -14.49550        6.7986148E-18
  -14.33400        6.8249225E-18
  -14.17250        6.8500212E-18
  -14.01100        6.8682564E-18
  -13.84950        6.8758950E-18
  -13.68800        6.8722500E-18
  -13.52650        6.8599304E-18
  -13.36500        6.8441226E-18
  -13.20350        6.8311234E-18
  -13.04200        6.8265466E-18
  -12.88050        6.8337278E-18
  -12.71900        6.8527877E-18
  -12.55750        6.8805851E-18
  -12.39600        6.9115610E-18
  -12.23450        6.9392281E-18
  -12.07300        6.9579248E-18
  -11.91150        6.9643463E-18
  -11.75000        6.9584642E-18
  -11.58850        6.9435493E-18
  -11.42700        6.9252640E-18
  -11.26550        6.9100650E-18
  -11.10400        6.9033520E-18
  -10.94250        6.9079276E-18
  -10.78100        6.9232118E-18
  -10.61950        6.9454510E-18
  -10.45800        6.9688436E-18
  -10.29650        6.9872360E-18
  -10.13500        6.9958957E-18
  -9.973500        6.9928658E-18
  -9.812000        6.9795432E-18
  -9.650500        6.9603336E-18
  -9.489000        6.9414722E-18
  -9.327500        6.9293180E-18
  -9.166000        6.9285699E-18
  -9.004500        6.9409122E-18
  -8.843000        6.9644894E-18
  -8.681500        6.9944002E-18
  -8.520000        7.0240720E-18
  -8.358500        7.0471288E-18
  -8.197000        7.0591775E-18
  -8.035500        7.0589972E-18
  -7.874000        7.0487832E-18
  -7.712500        7.0334249E-18
  -7.551000        7.0190444E-18
  -7.389500        7.0112333E-18
  -7.228000        7.0134700E-18
  -7.066500        7.0261300E-18
  -6.905000        7.0463620E-18
  -6.743500        7.0688729E-18
  -6.582000        7.0874241E-18
  -6.420500        7.0966389E-18
  -6.259000        7.0935990E-18
  -6.097500        7.0787462E-18
  -5.936000        7.0557952E-18
  -5.774500        7.0306845E-18
  -5.613000        7.0098627E-18
  -5.451500        6.9984550E-18
  -5.290000        6.9988389E-18
  -5.128500        7.0100281E-18
  -4.967000        7.0280193E-18
  -4.805500        7.0469634E-18
  -4.644000        7.0608385E-18
  -4.482500        7.0651614E-18
  -4.321000        7.0582726E-18
  -4.159500        7.0418398E-18
  -3.998000        7.0204134E-18
  -3.836500        7.0001392E-18
  -3.675000        6.9869796E-18
  -3.513500        6.9849679E-18
  -3.352000        6.9950297E-18
  -3.190500        7.0147240E-18
  -3.029000        7.0389836E-18
  -2.867500        7.0616152E-18
  -2.706000        7.0770943E-18
  -2.544500        7.0821368E-18
  -2.383000        7.0766228E-18
  -2.221500        7.0636079E-18
  -2.060000        7.0484523E-18
  -1.898500        7.0372978E-18
  -1.737000        7.0352960E-18
  -1.575500        7.0450774E-18
  -1.414000        7.0659224E-18
  -1.252500        7.0938811E-18
  -1.091000        7.1228498E-18
 -0.9295000        7.1463020E-18
 -0.7680000        7.1591655E-18
 -0.6065000        7.1592714E-18
 -0.4450000        7.1479688E-18
 -0.2835000        7.1297137E-18
 -0.1220000        7.1107928E-18
  3.9500002E-02    7.0975562E-18
  0.2010000        7.0946512E-18
  0.3625000        7.1037419E-18
  0.5240000        7.1230574E-18
  0.6855000        7.1478877E-18
  0.8470000        7.1719181E-18
   1.008500        7.1890424E-18
   1.170000        7.1951536E-18
   1.331500        7.1893865E-18
   1.493000        7.1744245E-18
   1.654500        7.1557467E-18
   1.816000        7.1400493E-18
   1.977500        7.1332954E-18
   2.139000        7.1389715E-18
   2.300500        7.1570752E-18
   2.462000        7.1840917E-18
   2.623500        7.2139621E-18
   2.785000        7.2397403E-18
   2.946500        7.2555064E-18
   3.108000        7.2579830E-18
   3.269500        7.2474505E-18
   3.431000        7.2276684E-18
   3.592500        7.2048333E-18
   3.754000        7.1858338E-18
   3.915500        7.1762997E-18
   4.077000        7.1790087E-18
   4.238500        7.1931287E-18
   4.400000        7.2145022E-18
   4.561500        7.2368998E-18
   4.723000        7.2538504E-18
   4.884500        7.2605232E-18
   5.046000        7.2551126E-18
   5.207500        7.2393623E-18
   5.369000        7.2180814E-18
   5.530500        7.1977990E-18
   5.692000        7.1849313E-18
   5.853500        7.1839528E-18
   6.015000        7.1961057E-18
   6.176500        7.2190062E-18
   6.338000        7.2472892E-18
   6.499500        7.2741105E-18
   6.661000        7.2930794E-18
   6.822500        7.3000558E-18
   6.984000        7.2942846E-18
   7.145500        7.2785492E-18
   7.307000        7.2583271E-18
   7.468500        7.2401978E-18
   7.630000        7.2299763E-18
   7.791500        7.2310839E-18
   7.953000        7.2436181E-18
   8.114500        7.2643547E-18
   8.276000        7.2876945E-18
   8.437500        7.3072887E-18
   8.599000        7.3178923E-18
   8.760500        7.3169063E-18
   8.922000        7.3051645E-18
   9.083500        7.2867068E-18
   9.245000        7.2676122E-18
   9.406500        7.2542416E-18
   9.568000        7.2514036E-18
   9.729500        7.2609765E-18
   9.891000        7.2814054E-18
   10.05250        7.3081614E-18
   10.21400        7.3350431E-18
   10.37550        7.3559402E-18
   10.53700        7.3665413E-18
   10.69850        7.3655528E-18
   10.86000        7.3550460E-18
   11.02150        7.3398598E-18
   11.18300        7.3261997E-18
   11.34450        7.3198329E-18
   11.50600        7.3243948E-18
   11.66750        7.3403023E-18
   11.82900        7.3646107E-18
   11.99050        7.3918530E-18
   12.15200        7.4156163E-18
   12.31350        7.4303922E-18
   12.47500        7.4331674E-18
   12.63650        7.4242827E-18
   12.79800        7.4073395E-18
   12.95950        7.3881638E-18
   13.12100        7.3731364E-18
   13.28250        7.3673627E-18
   13.44400        7.3731968E-18
   13.60550        7.3895535E-18
   13.76700        7.4122042E-18
   13.92850        7.4349988E-18
   14.09000        7.4516450E-18
   14.25150        7.4575519E-18
   14.41300        7.4511908E-18
   14.57450        7.4345703E-18
   14.73600        7.4126980E-18
   14.89750        7.3921806E-18
   15.05900        7.3793626E-18
   15.22050        7.3785363E-18
   15.38200        7.3907339E-18
   15.54350        7.4134350E-18
   15.70500        7.4412829E-18
   15.86650        7.4676120E-18
   16.02800        7.4863526E-18
   16.18950        7.4937758E-18
   16.35100        7.4895613E-18
   16.51250        7.4768971E-18
   16.67400        7.4615339E-18
   16.83550        7.4500990E-18
   16.99700        7.4481336E-18
   17.15850        7.4584436E-18
   17.32000        7.4802340E-18
   17.48150        7.5092846E-18
   17.64300        7.5391177E-18
   17.80450        7.5628089E-18
   17.96600        7.5749486E-18
   18.12750        7.5731727E-18
   18.28900        7.5588567E-18
   18.45050        7.5367478E-18
   18.61200        7.5136554E-18
   18.77350        7.4965394E-18
   18.93500        7.4905506E-18
   19.09650        7.4975767E-18
   19.25800        7.5157167E-18
   19.41950        7.5398563E-18
   19.58100        7.5631787E-18
   19.74250        7.5791697E-18
   19.90400        7.5835397E-18
   20.06550        7.5754756E-18
   20.22700        7.5578740E-18
   20.38850        7.5364814E-18
   20.55000        7.5182239E-18
   20.71150        7.5091845E-18
   20.87300        7.5128472E-18
   21.03450        7.5290765E-18
   21.19600        7.5541293E-18
   21.35750        7.5816960E-18
   21.51900        7.6046800E-18
   21.68050        7.6172118E-18
   21.84200        7.6163408E-18
   22.00350        7.6028941E-18
   22.16500        7.5812567E-18
   22.32650        7.5581089E-18
   22.48800        7.5405015E-18
   22.64950        7.5338121E-18
   22.81100        7.5402071E-18
   22.97250        7.5580485E-18
   23.13400        7.5824123E-18
   23.29550        7.6065635E-18
   23.45700        7.6239285E-18
   23.61850        7.6300223E-18
   23.78000        7.6237540E-18
   23.94150        7.6077604E-18
   24.10300        7.5876583E-18
   24.26450        7.5704314E-18
   24.42600        7.5624028E-18
   24.58750        7.5673766E-18
   24.74900        7.5855084E-18
   24.91050        7.6132297E-18
   25.07200        7.6442656E-18
   25.23350        7.6714393E-18
   25.39500        7.6887290E-18
   25.55650        7.6929774E-18
   25.71800        7.6847527E-18
   25.87950        7.6681405E-18
   26.04100        7.6495297E-18
   26.20250        7.6357597E-18
   26.36400        7.6321325E-18
   26.52550        7.6408782E-18
   26.68700        7.6605064E-18
   26.84850        7.6862359E-18
   27.01000        7.7114144E-18
   27.17150        7.7294933E-18
   27.33300        7.7359825E-18
   27.49450        7.7297935E-18
   27.65600        7.7135626E-18
   27.81750        7.6928657E-18
   27.97900        7.6745875E-18
   28.14050        7.6649252E-18
   28.30200        7.6676202E-18
   28.46350        7.6828949E-18
   28.62500        7.7074026E-18
   28.78650        7.7351727E-18
   28.94800        7.7593148E-18
   29.10950        7.7739997E-18
   29.27100        7.7761603E-18
   29.43250        7.7664203E-18
   29.59400        7.7489238E-18
   29.75550        7.7301178E-18
   29.91700        7.7168300E-18
   30.07850        7.7142202E-18
   30.24000        7.7242514E-18
   30.40150        7.7451245E-18
   30.56300        7.7718251E-18
   30.72450        7.7976050E-18
   30.88600        7.8159246E-18
   31.04750        7.8223162E-18
   31.20900        7.8156458E-18
   31.37050        7.7984313E-18
   31.53200        7.7761314E-18
   31.69350        7.7555743E-18
   31.85500        7.7429763E-18
   32.01650        7.7421020E-18
   32.17800        7.7531358E-18
   32.33950        7.7726126E-18
   32.50100        7.7944600E-18
   32.66250        7.8118267E-18
   32.82400        7.8191415E-18
   32.98550        7.8137731E-18
   33.14700        7.7968159E-18
   33.30850        7.7727912E-18
   33.47000        7.7483753E-18
   33.63150        7.7305198E-18
   33.79300        7.7244988E-18
   33.95450        7.7324124E-18
   34.11600        7.7525791E-18
   34.27750        7.7799993E-18
   34.43900        7.8077942E-18
   34.60050        7.8292215E-18
   34.76200        7.8396547E-18
   34.92350        7.8379474E-18
   35.08500        7.8267292E-18
   35.24650        7.8115835E-18
   35.40800        7.7993462E-18
   35.56950        7.7960656E-18
   35.73100        7.8052093E-18
   35.89250        7.8266316E-18
   36.05400        7.8565590E-18
   36.21550        7.8885957E-18
   36.37700        7.9154757E-18
   36.53850        7.9310979E-18
   36.70000        7.9322634E-18
   36.86150        7.9196207E-18
   37.02300        7.8975069E-18
   37.18450        7.8727055E-18
   37.34600        7.8524785E-18
   37.50750        7.8424762E-18
   37.66900        7.8451555E-18
   37.83050        7.8591737E-18
   37.99200        7.8799095E-18
   38.15350        7.9008959E-18
   38.31500        7.9157454E-18
   38.47650        7.9200012E-18
   38.63800        7.9124177E-18
   38.79950        7.8953298E-18
   38.96100        7.8740216E-18
   39.12250        7.8552289E-18
   39.28400        7.8451935E-18
   39.44550        7.8478206E-18
   39.60700        7.8634850E-18
   39.76850        7.8888802E-18
   39.93000        7.9179598E-18
   40.09150        7.9437000E-18
   40.25300        7.9601294E-18
   40.41450        7.9640155E-18
   40.57600        7.9557280E-18
   40.73750        7.9390479E-18
   40.89900        7.9200302E-18
   41.06050        7.9052452E-18
   41.22200        7.8999016E-18
   41.38350        7.9063594E-18
   41.54500        7.9234489E-18
   41.70650        7.9468093E-18
   41.86800        7.9701656E-18
   42.02950        7.9872006E-18
   42.19100        7.9934565E-18
   42.35250        7.9876911E-18
   42.51400        7.9722576E-18
   42.67550        7.9523928E-18
   42.83700        7.9346556E-18
   42.99850        7.9249834E-18
   43.16000        7.9269694E-18
   43.32150        7.9408247E-18
   43.48300        7.9633232E-18
   43.64450        7.9887259E-18
   43.80600        8.0104162E-18
   43.96750        8.0228148E-18
   44.12900        8.0230167E-18
   44.29050        8.0116826E-18
   44.45200        7.9928775E-18
   44.61350        7.9728837E-18
   44.77500        7.9583237E-18
   44.93650        7.9541696E-18
   45.09800        7.9622520E-18
   45.25950        7.9807204E-18
   45.42100        8.0046119E-18
   45.58250        8.0273230E-18
   45.74400        8.0425456E-18
   45.90550        8.0461058E-18
   46.06700        8.0371854E-18
   46.22850        8.0186012E-18
   46.39000        7.9960431E-18
   46.55150        7.9764720E-18
   46.71300        7.9660992E-18
   46.87450        7.9685336E-18
   47.03600        7.9836561E-18
   47.19750        8.0075955E-18
   47.35900        8.0338461E-18
   47.52050        8.0551915E-18
   47.68200        8.0658638E-18
   47.84350        8.0632549E-18
   48.00500        8.0486924E-18
   48.16650        8.0270517E-18
   48.32800        8.0053514E-18
   48.48950        7.9907417E-18
   48.65100        7.9884587E-18
   48.81250        8.0003097E-18
   48.97400        8.0241061E-18
   49.13550        8.0542403E-18
   49.29700        8.0832561E-18
   49.45850        8.1039869E-18
   49.62000        8.1116557E-18
   49.78150        8.1052881E-18
   49.94300        8.0880016E-18
   50.10450        8.0660698E-18
   50.26600        8.0470537E-18
   50.42750        8.0375552E-18
   50.58900        8.0412792E-18
   50.75050        8.0579617E-18
   50.91200        8.0834497E-18
   51.07350        8.1109013E-18
   51.23500        8.1327554E-18
   51.39650        8.1429132E-18
   51.55800        8.1385407E-18
   51.71950        8.1209358E-18
   51.88100        8.0952254E-18
   52.04250        8.0689169E-18
   52.20400        8.0497420E-18
   52.36550        8.0434100E-18
   52.52700        8.0519523E-18
   52.68850        8.0731769E-18
   52.85000        8.1013647E-18
   53.01150        8.1289992E-18
   53.17300        8.1489913E-18
   53.33450        8.1567519E-18
   53.49600        8.1515043E-18
   53.65750        8.1364819E-18
   53.81900        8.1179621E-18
   53.98050        8.1033905E-18
   54.14200        8.0991380E-18
   54.30350        8.1085414E-18
   54.46500        8.1308157E-18
   54.62650        8.1611881E-18
   54.78800        8.1922462E-18
   54.94950        8.2161054E-18
   55.11100        8.2267215E-18
   55.27250        8.2216641E-18
   55.43400        8.2028035E-18
   55.59550        8.1757299E-18
   55.75700        8.1481112E-18
   55.91850        8.1274714E-18
   56.08000        8.1190540E-18
   56.24150        8.1243537E-18
   56.40300        8.1407476E-18
   56.56450        8.1623222E-18
   56.72600        8.1816757E-18
   56.88750        8.1921883E-18
   57.04900        8.1900782E-18
   57.21050        8.1756092E-18
   57.37200        8.1530726E-18
   57.53350        8.1295170E-18
   57.69500        8.1126152E-18
   57.85650        8.1083403E-18
   58.01800        8.1191516E-18
   58.17950        8.1432317E-18
   58.34100        8.1749913E-18
   58.50250        8.2066681E-18
   58.66400        8.2305480E-18
   58.82550        8.2411715E-18
   58.98700        8.2369115E-18
   59.14850        8.2204407E-18
   59.31000        8.1979579E-18
   59.47150        8.1773611E-18
   59.63300        8.1658989E-18
   59.79450        8.1679834E-18
   59.95600        8.1838586E-18
   60.11750        8.2095236E-18
   60.27900        8.2379562E-18
   60.44050        8.2612381E-18
   60.60200        8.2729452E-18
   60.76350        8.2700707E-18
   60.92500        8.2539200E-18
   61.08650        8.2297324E-18
   61.24800        8.2051544E-18
   61.40950        8.1879962E-18
   61.57100        8.1839347E-18
   61.73250        8.1948155E-18
   61.89400        8.2180625E-18
   62.05550        8.2473993E-18
   62.21700        8.2746888E-18
   62.37850        8.2923483E-18
   62.54000        8.2956273E-18
   62.70150        8.2840376E-18
   62.86300        8.2615061E-18
   63.02450        8.2352117E-18
   63.18600        8.2134626E-18
   63.34750        8.2032469E-18
   63.50900        8.2081901E-18
   63.67050        8.2274908E-18
   63.83200        8.2561509E-18
   63.99350        8.2864356E-18
   64.15500        8.3101327E-18
   64.31650        8.3209861E-18
   64.47800        8.3165616E-18
   64.63950        8.2989856E-18
   64.80100        8.2743150E-18
   64.96250        8.2507081E-18
   65.12400        8.2359569E-18
   65.28550        8.2351256E-18
   65.44700        8.2490214E-18
   65.60850        8.2739543E-18
   65.77000        8.3028320E-18
   65.93150        8.3272628E-18
   66.09300        8.3400386E-18
   66.25450        8.3372675E-18
   66.41600        8.3195609E-18
   66.57750        8.2919000E-18
   66.73900        8.2622241E-18
   66.90050        8.2391333E-18
   67.06200        8.2293726E-18
   67.22350        8.2358552E-18
   67.38500        8.2568184E-18
   67.54650        8.2863926E-18
   67.70800        8.3163887E-18
   67.86950        8.3387656E-18
   68.03100        8.3480027E-18
   68.19250        8.3426872E-18
   68.35400        8.3258409E-18
   68.51550        8.3039363E-18
   68.67700        8.2849120E-18
   68.83850        8.2757733E-18
   69.00000        8.2804923E-18
   69.16150        8.2988012E-18
   69.32300        8.3262404E-18
   69.48450        8.3554556E-18
   69.64600        8.3783668E-18
   69.80750        8.3885693E-18
   69.96900        8.3832414E-18
   70.13050        8.3639971E-18
   70.29200        8.3364073E-18
   70.45350        8.3083634E-18
   70.61500        8.2877790E-18
   70.77650        8.2803286E-18
   70.93800        8.2878791E-18
   71.09950        8.3080639E-18
   71.26100        8.3350871E-18
   71.42250        8.3615081E-18
   71.58400        8.3804571E-18
   71.74550        8.3876536E-18
   71.90700        8.3826070E-18
   72.06850        8.3686872E-18
   72.23000        8.3520244E-18
   72.39150        8.3396018E-18
   72.55300        8.3371013E-18
   72.71450        8.3471664E-18
   72.87600        8.3685838E-18
   73.03750        8.3966310E-18
   73.19900        8.4244549E-18
   73.36050        8.4450699E-18
   73.52200        8.4533847E-18
   73.68350        8.4476573E-18
   73.84500        8.4299688E-18
   74.00650        8.4055819E-18
   74.16800        8.3813935E-18
   74.32950        8.3639267E-18
   74.49100        8.3574640E-18
   74.65250        8.3628787E-18
   74.81400        8.3774867E-18
   74.97550        8.3959494E-18
   75.13700        8.4119471E-18
   75.29850        8.4200989E-18
   75.46000        8.4175826E-18
   75.62150        8.4049582E-18
   75.78300        8.3859918E-18
   75.94450        8.3665307E-18
   76.10600        8.3527664E-18
   76.26750        8.3494039E-18
   76.42900        8.3582606E-18
   76.59050        8.3777117E-18
   76.75200        8.4031467E-18
   76.91350        8.4282955E-18
   77.07500        8.4470476E-18
   77.23650        8.4552127E-18
   77.39800        8.4517146E-18
   77.55950        8.4388660E-18
   77.72100        8.4216565E-18
   77.88250        8.4062701E-18
   78.04400        8.3982622E-18
   78.20550        8.4009365E-18
   78.36700        8.4143839E-18
   78.52850        8.4354638E-18
   78.69000        8.4587324E-18
   78.85150        8.4780330E-18
   79.01300        8.4882983E-18
   79.17450        8.4870087E-18
   79.33600        8.4749054E-18
   79.49750        8.4557496E-18
   79.65900        8.4352082E-18
   79.82050        8.4192097E-18
   79.98200        8.4122399E-18
   80.14350        8.4160656E-18
   80.30500        8.4292467E-18
   80.46650        8.4475737E-18
   80.62800        8.4653060E-18
   80.78950        8.4768774E-18
   80.95100        8.4785525E-18
   81.11250        8.4695635E-18
   81.27400        8.4523672E-18
   81.43550        8.4319541E-18
   81.59700        8.4144005E-18
   81.75850        8.4051220E-18
   81.92000        8.4073289E-18
   82.08150        8.4211420E-18
   82.24300        8.4435909E-18
   82.40450        8.4694824E-18
   82.56600        8.4928644E-18
   82.72750        8.5086908E-18
   82.88900        8.5142164E-18
   83.05050        8.5097364E-18
   83.21200        8.4984602E-18
   83.37350        8.4855231E-18
   83.53500        8.4764283E-18
   83.69650        8.4753620E-18
   83.85800        8.4839126E-18
   84.01950        8.5005861E-18
   84.18100        8.5212582E-18
   84.34250        8.5404314E-18
   84.50400        8.5528697E-18
   84.66550        8.5551453E-18
   84.82700        8.5466427E-18
   84.98850        8.5297525E-18
   85.15000        8.5092293E-18
   85.31150        8.4908783E-18
   85.47300        8.4799554E-18
   85.63450        8.4796874E-18
   85.79600        8.4903654E-18
   85.95750        8.5092764E-18
   86.11900        8.5315185E-18
   86.28050        8.5514602E-18
   86.44200        8.5644039E-18
   86.60350        8.5679335E-18
   86.76500        8.5625518E-18
   86.92650        8.5514196E-18
   87.08800        8.5393378E-18
   87.24950        8.5312613E-18
   87.41100        8.5308137E-18
   87.57250        8.5391889E-18
   87.73400        8.5547482E-18
   87.89550        8.5734351E-18
   88.05700        8.5899026E-18
   88.21850        8.5990743E-18
   88.38000        8.5976723E-18
   88.54150        8.5852546E-18
   88.70300        8.5644229E-18
   88.86450        8.5401046E-18
   89.02600        8.5181397E-18
   89.18750        8.5036177E-18
   89.34900        8.4994628E-18
   89.51050        8.5056906E-18
   89.67200        8.5194905E-18
   89.83350        8.5361069E-18
   89.99500        8.5502227E-18
   90.15650        8.5575011E-18
   90.31800        8.5558451E-18
   90.47950        8.5460438E-18
   90.64100        8.5315781E-18
   90.80250        8.5176012E-18
   90.96400        8.5093741E-18
   91.12550        8.5106214E-18
   91.28700        8.5223409E-18
   91.44850        8.5424472E-18
   91.61000        8.5663759E-18
   91.77150        8.5884161E-18
   91.93300        8.6033674E-18
   92.09450        8.6080029E-18
   92.25600        8.6019571E-18
   92.41750        8.5878156E-18
   92.57900        8.5703943E-18
   92.74050        8.5554067E-18
   92.90200        8.5478487E-18
   93.06350        8.5505420E-18
   93.22500        8.5632574E-18
   93.38650        8.5827400E-18
   93.54800        8.6036520E-18
   93.70950        8.6201939E-18
   93.87100        8.6278685E-18
   94.03250        8.6248493E-18
   94.19400        8.6125044E-18
   94.35550        8.5949484E-18
   94.51700        8.5778050E-18
   94.67850        8.5665570E-18
   94.84000        8.5649639E-18
   95.00150        8.5739760E-18
   95.16300        8.5914345E-18
   95.32450        8.6126476E-18
   95.48600        8.6317215E-18
   95.64750        8.6433144E-18
   95.80900        8.6442872E-18
   95.97050        8.6347407E-18
   96.13200        8.6180664E-18
   96.29350        8.5999652E-18
   96.45500        8.5867336E-18
   96.61650        8.5833645E-18
   96.77800        8.5920590E-18
   96.93950        8.6115772E-18
   97.10100        8.6376061E-18
   97.26250        8.6639749E-18
   97.42400        8.6843898E-18
   97.58550        8.6942034E-18
   97.74700        8.6917417E-18
   97.90850        8.6788121E-18
   98.07000        8.6602104E-18
   98.23150        8.6423053E-18
   98.39300        8.6311053E-18
   98.55450        8.6303980E-18
   98.71600        8.6405508E-18
   98.87750        8.6583973E-18
   99.03900        8.6782190E-18
   99.20050        8.6935218E-18
   99.36200        8.6990209E-18
   99.52350        8.6922496E-18
   99.68500        8.6743296E-18
   99.84650        8.6497177E-18
   100.0080        8.6249883E-18
   100.1695        8.6069946E-18
   100.3310        8.6008850E-18
   100.4925        8.6085431E-18
   100.6540        8.6279545E-18
   100.8155        8.6537286E-18
   100.9770        8.6786781E-18
   101.1385        8.6959752E-18
   101.3000        8.7012146E-18
   101.4615        8.6937005E-18
   101.6230        8.6765820E-18
   101.7845        8.6558131E-18
   101.9460        8.6383108E-18
   102.1075        8.6298695E-18
   102.2690        8.6334487E-18
   102.4305        8.6482957E-18
   102.5920        8.6701598E-18
   102.7535        8.6925259E-18
   102.9150        8.7085757E-18
   103.0765        8.7132906E-18
   103.2380        8.7050742E-18
   103.3995        8.6863378E-18
   103.5610        8.6628367E-18
   103.7225        8.6419240E-18
   103.8840        8.6303029E-18
   104.0455        8.6319837E-18
   104.2070        8.6470980E-18
   104.3685        8.6719117E-18
   104.5300        8.6999730E-18
   104.6915        8.7240357E-18
   104.8530        8.7381697E-18
   105.0145        8.7394750E-18
   105.1760        8.7289078E-18
   105.3375        8.7109604E-18
   105.4990        8.6922802E-18
   105.6605        8.6795863E-18
   105.8220        8.6775341E-18
   105.9835        8.6872013E-18
   106.1450        8.7057227E-18
   106.3065        8.7271988E-18
   106.4680        8.7445804E-18
   106.6295        8.7519224E-18
   106.7910        8.7462629E-18
   106.9525        8.7285653E-18
   107.1140        8.7034637E-18
   107.2755        8.6779047E-18
   107.4370        8.6591020E-18
   107.5985        8.6524002E-18
   107.7600        8.6596571E-18
   107.9215        8.6786582E-18
   108.0830        8.7037565E-18
   108.2445        8.7275992E-18
   108.4060        8.7433983E-18
   108.5675        8.7470512E-18
   108.7290        8.7383997E-18
   108.8905        8.7212266E-18
   109.0520        8.7020236E-18
   109.2135        8.6879359E-18
   109.3750        8.6845444E-18
   109.5365        8.6941662E-18
   109.6980        8.7151501E-18
   109.8595        8.7423536E-18
   110.0210        8.7686753E-18
   110.1825        8.7871769E-18
   110.3440        8.7932087E-18
   110.5055        8.7858741E-18
   110.6670        8.7683544E-18
   110.8285        8.7469643E-18
   110.9900        8.7291857E-18
   111.1515        8.7213325E-18
   111.3130        8.7265884E-18
   111.4745        8.7440419E-18
   111.6360        8.7690062E-18
   111.7975        8.7944726E-18
   111.9590        8.8132157E-18
   112.1205        8.8199283E-18
   112.2820        8.8127624E-18
   112.4435        8.7938630E-18
   112.6050        8.7687407E-18
   112.7665        8.7446441E-18
   112.9280        8.7283908E-18
   113.0895        8.7242979E-18
   113.2510        8.7328766E-18
   113.4125        8.7507114E-18
   113.5740        8.7716035E-18
   113.7355        8.7885781E-18
   113.8970        8.7961088E-18
   114.0585        8.7918298E-18
   114.2200        8.7772168E-18
   114.3815        8.7570725E-18
   114.5430        8.7380299E-18
   114.7045        8.7265363E-18
   114.8660        8.7269077E-18
   115.0275        8.7400135E-18
   115.1890        8.7629603E-18
   115.3505        8.7899016E-18
   115.5120        8.8137509E-18
   115.6735        8.8283035E-18
   115.8350        8.8301001E-18
   115.9965        8.8194353E-18
   116.1580        8.8001826E-18
   116.3195        8.7785097E-18
   116.4810        8.7609329E-18
   116.6425        8.7523410E-18
   116.8040        8.7545868E-18
   116.9655        8.7660399E-18
   117.1270        8.7821799E-18
   117.2885        8.7970261E-18
   117.4500        8.8049993E-18
   117.6115        8.8026782E-18
   117.7730        8.7899272E-18
   117.9345        8.7700352E-18
   118.0960        8.7487692E-18
   118.2575        8.7326177E-18
   118.4190        8.7267654E-18
   118.5805        8.7334788E-18
   118.7420        8.7514195E-18