  -27.90000        8.8724848E-18
  -27.73850        8.8860556E-18
  -27.57700        8.9063959E-18
  -27.41550        8.9241605E-18
  -27.25400        8.9328417E-18
  -27.09250        8.9323934E-18
  -26.93100        8.9289697E-18
  -26.76950        8.9309508E-18
  -26.60800        8.9436778E-18
  -26.44650        8.9660489E-18
  -26.28500        8.9910339E-18
  -26.12350        9.0097919E-18
  -25.96200        9.0169089E-18
  -25.80050        9.0136358E-18
  -25.63900        9.0071589E-18
  -25.47750        9.0063466E-18
  -25.31600        9.0165185E-18
  -25.15450        9.0363435E-18
  -24.99300        9.0587212E-18
  -24.83150        9.0750936E-18
  -24.67000        9.0805944E-18
  -24.50850        9.0769482E-18
  -24.34700        9.0713928E-18
  -24.18550        9.0722845E-18
  -24.02400        9.0840503E-18
  -23.86250        9.1045082E-18
  -23.70100        9.1261869E-18
  -23.53950        9.1408255E-18
  -23.37800        9.1443493E-18
  -23.21650        9.1393350E-18
  -23.05500        9.1334554E-18
  -22.89350        9.1348649E-18
  -22.73200        9.1472792E-18
  -22.57050        9.1677246E-18
  -22.40900        9.1883049E-18
  -22.24750        9.2009334E-18
  -22.08600        9.2021932E-18
  -21.92450        9.1953913E-18
  -21.76300        9.1885787E-18
  -21.60150        9.1897160E-18
  -21.44000        9.2018946E-18
  -21.27850        9.2214773E-18
  -21.11700        9.2402957E-18
  -20.95550        9.2505759E-18
  -20.79400        9.2496502E-18
  -20.63250        9.2416051E-18
  -20.47100        9.2348727E-18
  -20.30950        9.2371855E-18
  -20.14800        9.2509274E-18
  -19.98650        9.2716532E-18
  -19.82500        9.2906867E-18
  -19.66350        9.3002530E-18
  -19.50200        9.2980767E-18
  -19.34050        9.2887023E-18
  -19.17900        9.2807539E-18
  -19.01750        9.2817606E-18
  -18.85600        9.2936612E-18
  -18.69450        9.3116722E-18
  -18.53300        9.3271918E-18
  -18.37150        9.3329994E-18
  -18.21000        9.3276401E-18
  -18.04850        9.3163533E-18
  -17.88700        9.3079954E-18
  -17.72550        9.3097805E-18
  -17.56400        9.3229872E-18
  -17.40250        9.3421845E-18
  -17.24100        9.3584435E-18
  -17.07950        9.3646002E-18
  -16.91800        9.3594428E-18
  -16.75650        9.3483230E-18
  -16.59500        9.3398642E-18
  -16.43350        9.3407501E-18
  -16.27200        9.3517343E-18
  -16.11050        9.3672654E-18
  -15.94900        9.3789195E-18
  -15.78750        9.3805814E-18
  -15.62600        9.3722326E-18
  -15.46450        9.3600648E-18
  -15.30300        9.3528468E-18
  -15.14150        9.3567172E-18
  -14.98000        9.3715221E-18
  -14.81850        9.3908847E-18
  -14.65700        9.4059650E-18
  -14.49550        9.4106428E-18
  -14.33400        9.4050245E-18
  -14.17250        9.3951869E-18
  -14.01100        9.3893395E-18
  -13.84950        9.3927401E-18
  -13.68800        9.4044430E-18
  -13.52650        9.4178491E-18
  -13.36500        9.4247296E-18
  -13.20350        9.4202902E-18
  -13.04200        9.4062198E-18
  -12.88050        9.3898689E-18
  -12.71900        9.3800147E-18
  -12.55750        9.3817559E-18
  -12.39600        9.3935788E-18
  -12.23450        9.4083556E-18
  -12.07300        9.4176812E-18
  -11.91150        9.4169384E-18
  -11.75000        9.4080628E-18
  -11.58850        9.3983409E-18
  -11.42700        9.3959686E-18
  -11.26550        9.4050436E-18
  -11.10400        9.4230058E-18
  -10.94250        9.4420690E-18
  -10.78100        9.4538009E-18
  -10.61950        9.4541070E-18
  -10.45800        9.4456375E-18
  -10.29650        9.4361604E-18
  -10.13500        9.4338783E-18
  -9.973500        9.4424859E-18
  -9.812000        9.4589228E-18
  -9.650500        9.4751802E-18
  -9.489000        9.4830732E-18
  -9.327500        9.4791283E-18
  -9.166000        9.4666801E-18
  -9.004500        9.4539117E-18
  -8.843000        9.4490256E-18
  -8.681500        9.4554271E-18
  -8.520000        9.4697920E-18
  -8.358500        9.4841601E-18
  -8.197000        9.4907742E-18
  -8.035500        9.4867665E-18
  -7.874000        9.4758742E-18
  -7.712500        9.4661747E-18
  -7.551000        9.4652019E-18
  -7.389500        9.4753837E-18
  -7.228000        9.4925369E-18
  -7.066500        9.5083179E-18
  -6.905000        9.5151471E-18
  -6.743500        9.5106696E-18
  -6.582000        9.4990857E-18
  -6.420500        9.4885706E-18
  -6.259000        9.4863546E-18
  -6.097500        9.4944287E-18
  -5.936000        9.5084337E-18
  -5.774500        9.5203947E-18
  -5.613000        9.5236274E-18
  -5.451500        9.5168527E-18
  -5.290000        9.5050348E-18
  -5.128500        9.4964437E-18
  -4.967000        9.4977052E-18
  -4.805500        9.5098209E-18
  -4.644000        9.5275523E-18
  -4.482500        9.5425317E-18
  -4.321000        9.5482360E-18
  -4.159500        9.5438304E-18
  -3.998000        9.5345800E-18
  -3.836500        9.5285946E-18
  -3.675000        9.5318719E-18
  -3.513500        9.5446278E-18
  -3.352000        9.5611400E-18
  -3.190500        9.5731904E-18
  -3.029000        9.5750375E-18
  -2.867500        9.5669360E-18
  -2.706000        9.5550643E-18
  -2.544500        9.5478927E-18
  -2.383000        9.5511650E-18
  -2.221500        9.5644810E-18
  -2.060000        9.5815482E-18
  -1.898500        9.5939286E-18
  -1.737000        9.5960594E-18
  -1.575500        9.5885354E-18
  -1.414000        9.5776935E-18
  -1.252500        9.5717602E-18
  -1.091000        9.5758746E-18
 -0.9295000        9.5889771E-18
 -0.7680000        9.6044330E-18
 -0.6065000        9.6140117E-18
 -0.4450000        9.6128462E-18
 -0.2835000        9.6023907E-18
 -0.1220000        9.5896157E-18
  3.9500002E-02    9.5829072E-18
  0.2010000        9.5871209E-18
  0.3625000        9.6007346E-18
  0.5240000        9.6167968E-18
  0.6855000        9.6270762E-18
  0.8470000        9.6269521E-18
   1.008500        9.6180963E-18
   1.170000        9.6073976E-18
   1.331500        9.6027745E-18
   1.493000        9.6084109E-18
   1.654500        9.6222628E-18
   1.816000        9.6373291E-18
   1.977500        9.6458904E-18
   2.139000        9.6441699E-18
   2.300500        9.6346044E-18
   2.462000        9.6243829E-18
   2.623500        9.6211222E-18
   2.785000        9.6282889E-18
   2.946500        9.6431119E-18
   3.108000        9.6582204E-18
   3.269500        9.6660348E-18
   3.431000        9.6632563E-18
   3.592500        9.6527833E-18
   3.754000        9.6419249E-18
   3.915500        9.6380057E-18
   4.077000        9.6440127E-18
   4.238500        9.6568977E-18
   4.400000        9.6695379E-18
   4.561500        9.6751594E-18
   4.723000        9.6715239E-18
   4.884500        9.6623555E-18
   5.046000        9.6551350E-18
   5.207500        9.6565826E-18
   5.369000        9.6685436E-18
   5.530500        9.6867689E-18
   5.692000        9.7033299E-18
   5.853500        9.7112327E-18
   6.015000        9.7084898E-18
   6.176500        9.6992113E-18
   6.338000        9.6910743E-18
   6.499500        9.6907005E-18
   6.661000        9.6997118E-18
   6.822500        9.7138218E-18
   6.984000        9.7255074E-18
   7.145500        9.7286292E-18
   7.307000        9.7222169E-18
   7.468500        9.7111467E-18
   7.630000        9.7032728E-18
   7.791500        9.7047369E-18
   7.953000        9.7162595E-18
   8.114500        9.7326410E-18
   8.276000        9.7457799E-18
   8.437500        9.7494195E-18
   8.599000        9.7427996E-18
   8.760500        9.7310371E-18
   8.922000        9.7220399E-18
   9.083500        9.7217801E-18
   9.245000        9.7307724E-18
   9.406500        9.7438385E-18
   9.568000        9.7532709E-18
   9.729500        9.7535116E-18
   9.891000        9.7445102E-18
   10.05250        9.7317766E-18
   10.21400        9.7231111E-18
   10.37550        9.7239589E-18
   10.53700        9.7341978E-18
   10.69850        9.7482540E-18
   10.86000        9.7584722E-18
   11.02150        9.7597080E-18
   11.18300        9.7523990E-18
   11.34450        9.7422661E-18
   11.50600        9.7368613E-18
   11.66750        9.7410278E-18
   11.82900        9.7539914E-18
   11.99050        9.7698261E-18
   12.15200        9.7809914E-18
   12.31350        9.7828054E-18
   12.47500        9.7761821E-18
   12.63650        9.7669979E-18
   12.79800        9.7624898E-18
   12.95950        9.7668673E-18
   13.12100        9.7787828E-18
   13.28250        9.7921666E-18
   13.44400        9.7999222E-18
   13.60550        9.7982447E-18
   13.76700        9.7889513E-18
   13.92850        9.7784420E-18
   14.09000        9.7738900E-18
   14.25150        9.7789697E-18
   14.41300        9.7916777E-18
   14.57450        9.8055603E-18
   14.73600        9.8136005E-18
   14.89750        9.8124267E-18
   15.05900        9.8043195E-18
   15.22050        9.7958004E-18
   15.38200        9.7936638E-18
   15.54350        9.8008305E-18
   15.70500        9.8145162E-18
   15.86650        9.8278272E-18
   16.02800        9.8338366E-18
   16.18950        9.8296974E-18
   16.35100        9.8183468E-18
   16.51250        9.8067746E-18
   16.67400        9.8019000E-18
   16.83550        9.8065231E-18
   16.99700        9.8177546E-18
   17.15850        9.8288719E-18
   17.32000        9.8334603E-18
   17.48150        9.8293517E-18
   17.64300        9.8199913E-18
   17.80450        9.8124118E-18
   17.96600        9.8130115E-18
   18.12750        9.8236706E-18
   18.28900        9.8405178E-18
   18.45050        9.8560985E-18
   18.61200        9.8636548E-18
   18.77350        9.8609822E-18
   18.93500        9.8515871E-18
   19.09650        9.8424856E-18
   19.25800        9.8399760E-18
   19.41950        9.8459259E-18
   19.58100        9.8567834E-18
   19.74250        9.8658651E-18
   19.90400        9.8675178E-18
   20.06550        9.8606505E-18
   20.22700        9.8494861E-18
   20.38850        9.8410943E-18
   20.55000        9.8411878E-18
   20.71150        9.8506937E-18
   20.87300        9.8651669E-18
   21.03450        9.8773802E-18
   21.19600        9.8815649E-18
   21.35750        9.8767516E-18
   21.51900        9.8672440E-18
   21.68050        9.8599788E-18
   21.84200        9.8603502E-18
   22.00350        9.8690241E-18
   22.16500        9.8816336E-18
   22.32650        9.8915151E-18
   22.48800        9.8937989E-18
   22.64950        9.8883966E-18
   22.81100        9.8800578E-18
   22.97250        9.8754827E-18
   23.13400        9.8792215E-18
   23.29550        9.8908459E-18
   23.45700        9.9051057E-18
   23.61850        9.9149855E-18
   23.78000        9.9158499E-18
   23.94150        9.9081919E-18
   24.10300        9.8973351E-18
   24.26450        9.8902768E-18
   24.42600        9.8915465E-18
   24.58750        9.9005603E-18
   24.74900        9.9120383E-18
   24.91050        9.9192240E-18
   25.07200        9.9179692E-18
   25.23350        9.9092267E-18
   25.39500        9.8984601E-18
   25.55650        9.8923282E-18
   25.71800        9.8946468E-18
   25.87950        9.9040568E-18
   26.04100        9.9148069E-18
   26.20250        9.9202092E-18
   26.36400        9.9166879E-18
   26.52550        9.9060197E-18
   26.68700        9.8943970E-18
   26.84850        9.8888747E-18
   27.01000        9.8932902E-18
   27.17150        9.9060735E-18
   27.33300        9.9212465E-18
   27.49450        9.9319717E-18
   27.65600        9.9345525E-18
   27.81750        9.9304968E-18
   27.97900        9.9254229E-18
   28.14050        9.9255048E-18
   28.30200        9.9336012E-18
   28.46350        9.9473969E-18
   28.62500        9.9606848E-18
   28.78650        9.9670127E-18
   28.94800        9.9635286E-18
   29.10950        9.9527074E-18
   29.27100        9.9409507E-18
   29.43250        9.9348751E-18
   29.59400        9.9375146E-18
   29.75550        9.9466781E-18
   29.91700        9.9564256E-18
   30.07850        9.9607476E-18
   30.24000        9.9572272E-18
   30.40150        9.9484905E-18
   30.56300        9.9405876E-18
   30.72450        9.9392955E-18
   30.88600        9.9465681E-18
   31.04750        9.9592860E-18
   31.20900        9.9710576E-18
   31.37050        9.9759793E-18
   31.53200        9.9721181E-18
   31.69350        9.9626179E-18
   31.85500        9.9537770E-18
   32.01650        9.9512541E-18
   32.17800        9.9566928E-18
   32.33950        9.9667736E-18
   32.50100        9.9752804E-18
   32.66250        9.9769107E-18
   32.82400        9.9705464E-18
   32.98550        9.9600023E-18
   33.14700        9.9517992E-18
   33.30850        9.9512839E-18
   33.47000        9.9594366E-18
   33.63150        9.9722736E-18
   33.79300        9.9832238E-18
   33.95450        9.9870520E-18
   34.11600        9.9829913E-18
   34.27750        9.9751927E-18
   34.43900        9.9702313E-18
   34.60050        9.9731429E-18
   34.76200        9.9843802E-18
   34.92350        9.9994936E-18
   35.08500        1.0011752E-17
   35.24650        1.0016118E-17
   35.40800        1.0012207E-17
   35.56950        1.0004464E-17
   35.73100        9.9994357E-18
   35.89250        1.0001780E-17
   36.05400        1.0011407E-17
   36.21550        1.0023466E-17
   36.37700        1.0031203E-17
   36.53850        1.0029983E-17
   36.70000        1.0020094E-17
   36.86150        1.0006643E-17
   37.02300        9.9966183E-18
   37.18450        9.9948515E-18
   37.34600        1.0001290E-17
   37.50750        1.0011186E-17
   37.66900        1.0018057E-17
   37.83050        1.0017645E-17
   37.99200        1.0010483E-17
   38.15350        1.0001528E-17
   38.31500        9.9971254E-18
   38.47650        1.0001087E-17
   38.63800        1.0012307E-17
   38.79950        1.0025318E-17
   38.96100        1.0033477E-17
   39.12250        1.0032889E-17
   39.28400        1.0024715E-17
   39.44550        1.0014481E-17
   39.60700        1.0008822E-17
   39.76850        1.0011590E-17
   39.93000        1.0021662E-17
   40.09150        1.0033726E-17
   40.25300        1.0041563E-17
   40.41450        1.0041820E-17
   40.57600        1.0035990E-17
   40.73750        1.0029429E-17
   40.89900        1.0027993E-17
   41.06050        1.0034354E-17
   41.22200        1.0046238E-17
   41.38350        1.0057675E-17
   41.54500        1.0062533E-17
   41.70650        1.0058204E-17
   41.86800        1.0047253E-17
   42.02950        1.0035991E-17
   42.19100        1.0030832E-17
   42.35250        1.0034583E-17
   42.51400        1.0044897E-17
   42.67550        1.0055797E-17
   42.83700        1.0061346E-17
   42.99850        1.0059240E-17
   43.16000        1.0052179E-17
   43.32150        1.0046166E-17
   43.48300        1.0046773E-17
   43.64450        1.0055646E-17
   43.80600        1.0069350E-17
   43.96750        1.0081305E-17
   44.12900        1.0085658E-17
   44.29050        1.0080780E-17
   44.45200        1.0070286E-17
   44.61350        1.0060941E-17
   44.77500        1.0058684E-17
   44.93650        1.0065142E-17
   45.09800        1.0076701E-17
   45.25950        1.0086695E-17
   45.42100        1.0089402E-17
   45.58250        1.0083453E-17
   45.74400        1.0072625E-17
   45.90550        1.0063544E-17
   46.06700        1.0061699E-17
   46.22850        1.0068154E-17
   46.39000        1.0078937E-17
   46.55150        1.0087479E-17
   46.71300        1.0088625E-17
   46.87450        1.0081793E-17
   47.03600        1.0071390E-17
   47.19750        1.0064211E-17
   47.35900        1.0065376E-17
   47.52050        1.0075247E-17
   47.68200        1.0089168E-17
   47.84350        1.0100186E-17
   48.00500        1.0103124E-17
   48.16650        1.0097570E-17
   48.32800        1.0088012E-17
   48.48950        1.0081044E-17
   48.65100        1.0081362E-17
   48.81250        1.0088955E-17
   48.97400        1.0099184E-17
   49.13550        1.0105692E-17
   49.29700        1.0104366E-17
   49.45850        1.0095941E-17
   49.62000        1.0085666E-17
   49.78150        1.0080208E-17
   49.94300        1.0083676E-17
   50.10450        1.0095144E-17
   50.26600        1.0109185E-17
   50.42750        1.0119102E-17
   50.58900        1.0120897E-17
   50.75050        1.0115605E-17
   50.91200        1.0108567E-17
   51.07350        1.0106103E-17
   51.23500        1.0111578E-17
   51.39650        1.0123273E-17
   51.55800        1.0135337E-17
   51.71950        1.0141281E-17
   51.88100        1.0137888E-17
   52.04250        1.0127201E-17
   52.20400        1.0115359E-17
   52.36550        1.0108971E-17
   52.52700        1.0111215E-17
   52.68850        1.0120000E-17
   52.85000        1.0129301E-17
   53.01150        1.0132872E-17
   53.17300        1.0128091E-17
   53.33450        1.0117608E-17
   53.49600        1.0107795E-17
   53.65750        1.0104900E-17
   53.81900        1.0111248E-17
   53.98050        1.0123748E-17
   54.14200        1.0135652E-17
   54.30350        1.0140517E-17
   54.46500        1.0136011E-17
   54.62650        1.0125280E-17
   54.78800        1.0115068E-17
   54.94950        1.0111701E-17
   55.11100        1.0117359E-17
   55.27250        1.0128852E-17
   55.43400        1.0139630E-17
   55.59550        1.0143790E-17
   55.75700        1.0139674E-17
   55.91850        1.0130864E-17
   56.08000        1.0123991E-17
   56.24150        1.0124676E-17
   56.40300        1.0134055E-17
   56.56450        1.0148006E-17
   56.72600        1.0159529E-17
   56.88750        1.0162899E-17
   57.04900        1.0157053E-17
   57.21050        1.0146218E-17
   57.37200        1.0137375E-17
   57.53350        1.0136112E-17
   57.69500        1.0143344E-17
   57.85650        1.0154856E-17
   58.01800        1.0163945E-17
   58.17950        1.0165510E-17
   58.34100        1.0159149E-17
   58.50250        1.0149352E-17
   58.66400        1.0142717E-17
   58.82550        1.0143870E-17
   58.98700        1.0152591E-17
   59.14850        1.0163907E-17
   59.31000        1.0171100E-17
   59.47150        1.0169824E-17
   59.63300        1.0160822E-17
   59.79450        1.0149584E-17
   59.95600        1.0143125E-17
   60.11750        1.0145818E-17
   60.27900        1.0156784E-17
   60.44050        1.0170411E-17
   60.60200        1.0179703E-17
   60.76350        1.0180428E-17
   60.92500        1.0173566E-17
   61.08650        1.0164598E-17
   61.24800        1.0160054E-17
   61.40950        1.0163452E-17
   61.57100        1.0173091E-17
   61.73250        1.0183066E-17
   61.89400        1.0186903E-17
   62.05550        1.0181600E-17
   62.21700        1.0169637E-17
   62.37850        1.0157671E-17
   62.54000        1.0152683E-17
   62.70150        1.0157857E-17
   62.86300        1.0170673E-17
   63.02450        1.0184375E-17
   63.18600        1.0191932E-17
   63.34750        1.0190134E-17
   63.50900        1.0181382E-17
   63.67050        1.0172103E-17
   63.83200        1.0168770E-17
   63.99350        1.0173933E-17
   64.15500        1.0184668E-17
   64.31650        1.0194393E-17
   64.47800        1.0196915E-17
   64.63950        1.0190290E-17
   64.80100        1.0178118E-17
   64.96250        1.0167482E-17
   65.12400        1.0164762E-17
   65.28550        1.0171828E-17
   65.44700        1.0184934E-17
   65.60850        1.0196950E-17
   65.77000        1.0201623E-17
   65.93150        1.0197295E-17
   66.09300        1.0187829E-17
   66.25450        1.0180232E-17
   66.41600        1.0180379E-17
   66.57750        1.0189467E-17
   66.73900        1.0203298E-17
   66.90050        1.0214836E-17
   67.06200        1.0218467E-17
   67.22350        1.0213364E-17
   67.38500        1.0203917E-17
   67.54650        1.0196989E-17
   67.70800        1.0197651E-17
   67.86950        1.0206029E-17
   68.03100        1.0217184E-17
   68.19250        1.0224100E-17
   68.35400        1.0221994E-17
   68.51550        1.0211303E-17
   68.67700        1.0197536E-17
   68.83850        1.0188041E-17
   69.00000        1.0187667E-17
   69.16150        1.0195903E-17
   69.32300        1.0207252E-17
   69.48450        1.0214615E-17
   69.64600        1.0213615E-17
   69.80750        1.0205241E-17
   69.96900        1.0195213E-17
   70.13050        1.0190444E-17
   70.29200        1.0194758E-17
   70.45350        1.0206481E-17
   70.61500        1.0219395E-17
   70.77650        1.0226484E-17
   70.93800        1.0224211E-17
   71.09950        1.0214713E-17
   71.26100        1.0204562E-17
   71.42250        1.0200812E-17
   71.58400        1.0206723E-17
   71.74550        1.0219742E-17
   71.90700        1.0232989E-17
   72.06850        1.0239369E-17
   72.23000        1.0235839E-17
   72.39150        1.0225242E-17
   72.55300        1.0214614E-17
   72.71450        1.0210955E-17
   72.87600        1.0217039E-17
   73.03750        1.0229768E-17
   73.19900        1.0242077E-17
   73.36050        1.0247213E-17
   73.52200        1.0242815E-17
   73.68350        1.0232295E-17
   73.84500        1.0222708E-17
   74.00650        1.0220391E-17
   74.16800        1.0227047E-17
   74.32950        1.0238642E-17
   74.49100        1.0247827E-17
   74.65250        1.0248399E-17
   74.81400        1.0239126E-17
   74.97550        1.0224606E-17
   75.13700        1.0212615E-17
   75.29850        1.0209562E-17
   75.46000        1.0216750E-17
   75.62150        1.0229719E-17
   75.78300        1.0241016E-17
   75.94450        1.0244717E-17
   76.10600        1.0239921E-17
   76.26750        1.0231140E-17
   76.42900        1.0225347E-17
   76.59050        1.0227526E-17
   76.75200        1.0237469E-17
   76.91350        1.0249789E-17
   77.07500        1.0257161E-17
   77.23650        1.0254825E-17
   77.39800        1.0243571E-17
   77.55950        1.0229391E-17
   77.72100        1.0219968E-17
   77.88250        1.0220108E-17
   78.04400        1.0228906E-17
   78.20550        1.0240339E-17
   78.36700        1.0246955E-17
   78.52850        1.0244397E-17
   78.69000        1.0234025E-17
   78.85150        1.0222039E-17
   79.01300        1.0215656E-17
   79.17450        1.0218670E-17
   79.33600        1.0229127E-17
   79.49750        1.0240535E-17
   79.65900        1.0245878E-17
   79.82050        1.0241975E-17
   79.98200        1.0231514E-17
   80.14350        1.0221468E-17
   80.30500        1.0218848E-17
   80.46650        1.0226364E-17
   80.62800        1.0240634E-17
   80.78950        1.0254082E-17
   80.95100        1.0259393E-17
   81.11250        1.0253858E-17
   81.27400        1.0240985E-17
   81.43550        1.0228396E-17
   81.59700        1.0223282E-17
   81.75850        1.0228152E-17
   81.92000        1.0239460E-17
   82.08150        1.0249888E-17
   82.24300        1.0252917E-17
   82.40450        1.0246863E-17
   82.56600        1.0235919E-17
   82.72750        1.0227565E-17
   82.88900        1.0227924E-17
   83.05050        1.0237899E-17
   83.21200        1.0252470E-17
   83.37350        1.0263591E-17
   83.53500        1.0264972E-17
   83.69650        1.0255841E-17
   83.85800        1.0241411E-17
   84.01950        1.0229781E-17
   84.18100        1.0227122E-17
   84.34250        1.0234075E-17
   84.50400        1.0245510E-17
   84.66550        1.0253772E-17
   84.82700        1.0253414E-17
   84.98850        1.0244519E-17
   85.15000        1.0232607E-17
   85.31150        1.0225193E-17
   85.47300        1.0227116E-17
   85.63450        1.0237526E-17
   85.79600        1.0250362E-17
   85.95750        1.0258049E-17
   86.11900        1.0256143E-17
   86.28050        1.0246083E-17
   86.44200        1.0234346E-17
   86.60350        1.0228514E-17
   86.76500        1.0232644E-17
   86.92650        1.0244758E-17
   87.08800        1.0257997E-17
   87.24950        1.0264751E-17
   87.41100        1.0261245E-17
   87.57250        1.0249788E-17
   87.73400        1.0237334E-17
   87.89550        1.0231225E-17
   88.05700        1.0234735E-17
   88.21850        1.0245123E-17
   88.38000        1.0255406E-17
   88.54150        1.0258749E-17
   88.70300        1.0252773E-17
   88.86450        1.0241124E-17
   89.02600        1.0231319E-17
   89.18750        1.0230155E-17
   89.34900        1.0239477E-17
   89.51050        1.0254906E-17
   89.67200        1.0268350E-17
   89.83350        1.0272773E-17
   89.99500        1.0266379E-17
   90.15650        1.0253649E-17
   90.31800        1.0242617E-17
   90.47950        1.0240019E-17
   90.64100        1.0247258E-17
   90.80250        1.0259636E-17
   90.96400        1.0269297E-17
   91.12550        1.0270089E-17
   91.28700        1.0261376E-17
   91.44850        1.0248463E-17
   91.61000        1.0239378E-17
   91.77150        1.0239967E-17
   91.93300        1.0250301E-17
   92.09450        1.0264579E-17
   92.25600        1.0274617E-17
   92.41750        1.0274793E-17
   92.57900        1.0265455E-17
   92.74050        1.0252710E-17
   92.90200        1.0244724E-17
   93.06350        1.0246765E-17
   93.22500        1.0258017E-17
   93.38650        1.0272068E-17
   93.54800        1.0280784E-17
   93.70950        1.0279201E-17
   93.87100        1.0268468E-17
   94.03250        1.0255058E-17
   94.19400        1.0246769E-17
   94.35550        1.0247960E-17
   94.51700        1.0256939E-17
   94.67850        1.0267107E-17
   94.84000        1.0271127E-17
   95.00150        1.0265552E-17
   95.16300        1.0253063E-17
   95.32450        1.0240931E-17
   95.48600        1.0236609E-17
   95.64750        1.0243167E-17
   95.80900        1.0257343E-17
   95.97050        1.0271434E-17
   96.13200        1.0277876E-17
   96.29350        1.0273740E-17
   96.45500        1.0262412E-17
   96.61650        1.0251450E-17
   96.77800        1.0247921E-17
   96.93950        1.0254083E-17
   97.10100        1.0266060E-17
   97.26250        1.0276291E-17
   97.42400        1.0278266E-17
   97.58550        1.0270624E-17
   97.74700        1.0258082E-17
   97.90850        1.0248600E-17
   98.07000        1.0248501E-17
   98.23150        1.0258530E-17
   98.39300        1.0273291E-17
   98.55450        1.0284414E-17
   98.71600        1.0285581E-17
   98.87750        1.0276354E-17
   99.03900        1.0262458E-17
   99.20050        1.0252349E-17
   99.36200        1.0252140E-17
   99.52350        1.0261927E-17
   99.68500        1.0275779E-17
   99.84650        1.0285378E-17
   100.0080        1.0285067E-17
   100.1695        1.0275286E-17
   100.3310        1.0262248E-17
   100.4925        1.0254105E-17
   100.6540        1.0255930E-17
   100.8155        1.0266577E-17
   100.9770        1.0279369E-17
   101.1385        1.0286179E-17
   101.3000        1.0282441E-17
   101.4615        1.0270021E-17
   101.6230        1.0256187E-17
   101.7845        1.0249281E-17
   101.9460        1.0253714E-17
   102.1075        1.0267299E-17
   102.2690        1.0282543E-17
   102.4305        1.0291113E-17
   102.5920        1.0288752E-17
   102.7535        1.0277693E-17
   102.9150        1.0265125E-17
   103.0765        1.0258687E-17
   103.2380        1.0261755E-17
   103.3995        1.0271430E-17
   103.5610        1.0280420E-17
   103.7225        1.0281668E-17
   103.8840        1.0272865E-17
   104.0455        1.0258049E-17
   104.2070        1.0245302E-17
   104.3685        1.0241916E-17
   104.5300        1.0249980E-17
   104.6915        1.0265072E-17
   104.8530        1.0278890E-17
   105.0145        1.0284198E-17
   105.1760        1.0279116E-17
   105.3375        1.0268139E-17
   105.4990        1.0259264E-17
   105.6605        1.0259029E-17
   105.8220        1.0268465E-17
   105.9835        1.0282468E-17
   106.1450        1.0292949E-17
   106.3065        1.0293847E-17
   106.4680        1.0284904E-17
   106.6295        1.0271881E-17
   106.7910        1.0263054E-17
   106.9525        1.0264129E-17
   107.1140        1.0274684E-17
   107.2755        1.0288332E-17
   107.4370        1.0296552E-17
   107.5985        1.0293869E-17
   107.7600        1.0281229E-17
   107.9215        1.0265513E-17
   108.0830        1.0255460E-17
   108.2445        1.0256449E-17
   108.4060        1.0267315E-17
   108.5675        1.0281111E-17
   108.7290        1.0289354E-17
   108.8905        1.0287182E-17
   109.0520        1.0276262E-17
   109.2135        1.0263699E-17
   109.3750        1.0257620E-17
   109.5365        1.0262114E-17
   109.6980        1.0274647E-17
   109.8595        1.0287539E-17
   110.0210        1.0292617E-17
   110.1825        1.0286223E-17
   110.3440        1.0271522E-17
   110.5055        1.0256700E-17
   110.6670        1.0250110E-17
   110.8285        1.0255317E-17
   110.9900        1.0269013E-17
   111.1515        1.0283078E-17
   111.3130        1.0289505E-17
   111.4745        1.0285213E-17
   111.6360        1.0273822E-17
   111.7975        1.0263331E-17
   111.9590        1.0261145E-17
   112.1205        1.0269489E-17
   112.2820        1.0284017E-17
   112.4435        1.0296459E-17
   112.6050        1.0299674E-17
   112.7665        1.0292026E-17
   112.9280        1.0278397E-17
   113.0895        1.0267204E-17
   113.2510        1.0265265E-17
   113.4125        1.0273620E-17
   113.5740        1.0286889E-17
   113.7355        1.0296556E-17
   113.8970        1.0296178E-17
   114.0585        1.0285351E-17
   114.2200        1.0269997E-17
   114.3815        1.0258805E-17
   114.5430        1.0257977E-17
   114.7045        1.0267502E-17
   114.8660        1.0281209E-17
   115.0275        1.0290576E-17
   115.1890        1.0289958E-17
   115.3505        1.0280029E-17
   115.5120        1.0267345E-17
   115.6735        1.0260270E-17
   115.8350        1.0263766E-17
   115.9965        1.0276267E-17
   116.1580        1.0290536E-17
   116.3195        1.0298045E-17
   116.4810        1.0294194E-17
   116.6425        1.0281202E-17
   116.8040        1.0266863E-17
   116.9655        1.0259903E-17
   117.1270        1.0264737E-17
   117.2885        1.0278794E-17
   117.4500        1.0294058E-17
   117.6115        1.0301874E-17
   117.7730        1.0298140E-17
   117.9345        1.0285717E-17
   118.0960        1.0272615E-17
   118.2575        1.0267059E-17
   118.4190        1.0272451E-17
   118.5805        1.0285291E-17
   118.7420        1.0297337E-17