  -27.90000        5.7275892E-18
  -27.73850        5.7389555E-18
  -27.57700        5.7595995E-18
  -27.41550        5.7859981E-18
  -27.25400        5.8138633E-18
  -27.09250        5.8389612E-18
  -26.93100        5.8579434E-18
  -26.76950        5.8690061E-18
  -26.60800        5.8722416E-18
  -26.44650        5.8695905E-18
  -26.28500        5.8643896E-18
  -26.12350        5.8606288E-18
  -25.96200        5.8620582E-18
  -25.80050        5.8713648E-18
  -25.63900        5.8895930E-18
  -25.47750        5.9159254E-18
  -25.31600        5.9478579E-18
  -25.15450        5.9817119E-18
  -24.99300        6.0133685E-18
  -24.83150        6.0390835E-18
  -24.67000        6.0562091E-18
  -24.50850        6.0637170E-18
  -24.34700        6.0624100E-18
  -24.18550        6.0547822E-18
  -24.02400        6.0445516E-18
  -23.86250        6.0359299E-18
  -23.70100        6.0327783E-18
  -23.53950        6.0378121E-18
  -23.37800        6.0520343E-18
  -23.21650        6.0745270E-18
  -23.05500        6.1026548E-18
  -22.89350        6.1326381E-18
  -22.73200        6.1603590E-18
  -22.57050        6.1822288E-18
  -22.40900        6.1959211E-18
  -22.24750        6.2008188E-18
  -22.08600        6.1981107E-18
  -21.92450        6.1905175E-18
  -21.76300        6.1817345E-18
  -21.60150        6.1756862E-18
  -21.44000        6.1757420E-18
  -21.27850        6.1840395E-18
  -21.11700        6.2010368E-18
  -20.95550        6.2253923E-18
  -20.79400        6.2542100E-18
  -20.63250        6.2836196E-18
  -20.47100        6.3095745E-18
  -20.30950        6.3287138E-18
  -20.14800        6.3390813E-18
  -19.98650        6.3405470E-18
  -19.82500        6.3348295E-18
  -19.66350        6.3251172E-18
  -19.50200        6.3153834E-18
  -19.34050        6.3095521E-18
  -19.17900        6.3106978E-18
  -19.01750        6.3204428E-18
  -18.85600        6.3386519E-18
  -18.69450        6.3634794E-18
  -18.53300        6.3917400E-18
  -18.37150        6.4195337E-18
  -18.21000        6.4430153E-18
  -18.04850        6.4591606E-18
  -17.88700        6.4663959E-18
  -17.72550        6.4649401E-18
  -17.56400        6.4567932E-18
  -17.40250        6.4453367E-18
  -17.24100        6.4346326E-18
  -17.07950        6.4285623E-18
  -16.91800        6.4299983E-18
  -16.75650        6.4402057E-18
  -16.59500        6.4585935E-18
  -16.43350        6.4828709E-18
  -16.27200        6.5095574E-18
  -16.11050        6.5347148E-18
  -15.94900        6.5547529E-18
  -15.78750        6.5671366E-18
  -15.62600        6.5708804E-18
  -15.46450        6.5667371E-18
  -15.30300        6.5570591E-18
  -15.14150        6.5453491E-18
  -14.98000        6.5355797E-18
  -14.81850        6.5313900E-18
  -14.65700        6.5353282E-18
  -14.49550        6.5482852E-18
  -14.33400        6.5692732E-18
  -14.17250        6.5955982E-18
  -14.01100        6.6234167E-18
  -13.84950        6.6485469E-18
  -13.68800        6.6673524E-18
  -13.52650        6.6774990E-18
  -13.36500        6.6784156E-18
  -13.20350        6.6713754E-18
  -13.04200        6.6591973E-18
  -12.88050        6.6456485E-18
  -12.71900        6.6346792E-18
  -12.55750        6.6296458E-18
  -12.39600        6.6326534E-18
  -12.23450        6.6441393E-18
  -12.07300        6.6627719E-18
  -11.91150        6.6856993E-18
  -11.75000        6.7091069E-18
  -11.58850        6.7289960E-18
  -11.42700        6.7420282E-18
  -11.26550        6.7462576E-18
  -11.10400        6.7415712E-18
  -10.94250        6.7297409E-18
  -10.78100        6.7140563E-18
  -10.61950        6.6986356E-18
  -10.45800        6.6875642E-18
  -10.29650        6.6840627E-18
  -10.13500        6.6898555E-18
  -9.973500        6.7048531E-18
  -9.812000        6.7271989E-18
  -9.650500        6.7536427E-18
  -9.489000        6.7801650E-18
  -9.327500        6.8027342E-18
  -9.166000        6.8180705E-18
  -9.004500        6.8242756E-18
  -8.843000        6.8212126E-18
  -8.681500        6.8105415E-18
  -8.520000        6.7953925E-18
  -8.358500        6.7797125E-18
  -8.197000        6.7674318E-18
  -8.035500        6.7616208E-18
  -7.874000        6.7638410E-18
  -7.712500        6.7738379E-18
  -7.551000        6.7896461E-18
  -7.389500        6.8080521E-18
  -7.228000        6.8253175E-18
  -7.066500        6.8379775E-18
  -6.905000        6.8435514E-18
  -6.743500        6.8410355E-18
  -6.582000        6.8311044E-18
  -6.420500        6.8159889E-18
  -6.259000        6.7990673E-18
  -6.097500        6.7842314E-18
  -5.936000        6.7751324E-18
  -5.774500        6.7744413E-18
  -5.613000        6.7832777E-18
  -5.451500        6.8009251E-18
  -5.290000        6.8249427E-18
  -5.128500        6.8516383E-18
  -4.967000        6.8768289E-18
  -4.805500        6.8967098E-18
  -4.644000        6.9086261E-18
  -4.482500        6.9115775E-18
  -4.321000        6.9063460E-18
  -4.159500        6.8952519E-18
  -3.998000        6.8816071E-18
  -3.836500        6.8690029E-18
  -3.675000        6.8605851E-18
  -3.513500        6.8584394E-18
  -3.352000        6.8632003E-18
  -3.190500        6.8739300E-18
  -3.029000        6.8883064E-18
  -2.867500        6.9030799E-18
  -2.706000        6.9147464E-18
  -2.544500        6.9202960E-18
  -2.383000        6.9178943E-18
  -2.221500        6.9073324E-18
  -2.060000        6.8901250E-18
  -1.898500        6.8692296E-18
  -1.737000        6.8484338E-18
  -1.575500        6.8315639E-18
  -1.414000        6.8216961E-18
  -1.252500        6.8205471E-18
  -1.091000        6.8281663E-18
 -0.9295000        6.8429649E-18
 -0.7680000        6.8620662E-18
 -0.6065000        6.8818772E-18
 -0.4450000        6.8987814E-18
 -0.2835000        6.9098276E-18
 -0.1220000        6.9133059E-18
  3.9500002E-02    6.9090951E-18
  0.2010000        6.8987186E-18
  0.3625000        6.8850635E-18
  0.5240000        6.8718017E-18
  0.6855000        6.8626150E-18
  0.8470000        6.8603961E-18
   1.008500        6.8666033E-18
   1.170000        6.8809354E-18
   1.331500        6.9014024E-18
   1.493000        6.9247657E-18
   1.654500        6.9472418E-18
   1.816000        6.9652876E-18
   1.977500        6.9763089E-18
   2.139000        6.9791445E-18
   2.300500        6.9742575E-18
   2.462000        6.9636233E-18
   2.623500        6.9503404E-18
   2.785000        6.9380357E-18
   2.946500        6.9301717E-18
   3.108000        6.9293470E-18
   3.269500        6.9367453E-18
   3.431000        6.9518434E-18
   3.592500        6.9724667E-18
   3.754000        6.9952092E-18
   3.915500        7.0161443E-18
   4.077000        7.0316697E-18
   4.238500        7.0392822E-18
   4.400000        7.0381084E-18
   4.561500        7.0290624E-18
   4.723000        7.0146182E-18
   4.884500        6.9982640E-18
   5.046000        6.9837809E-18
   5.207500        6.9745024E-18
   5.369000        6.9726834E-18
   5.530500        6.9790957E-18
   5.692000        6.9928972E-18
   5.853500        7.0117867E-18
   6.015000        7.0324348E-18
   6.176500        7.0511274E-18
   6.338000        7.0645104E-18
   6.499500        7.0702982E-18
   6.661000        7.0677844E-18
   6.822500        7.0580286E-18
   6.984000        7.0436522E-18
   7.145500        7.0282790E-18
   7.307000        7.0157497E-18
   7.468500        7.0092919E-18
   7.630000        7.0108479E-18
   7.791500        7.0206888E-18
   7.953000        7.0373979E-18
   8.114500        7.0581791E-18
   8.276000        7.0794294E-18
   8.437500        7.0974338E-18
   8.599000        7.1090731E-18
   8.760500        7.1124232E-18
   8.922000        7.1071375E-18
   9.083500        7.0945486E-18
   9.245000        7.0774417E-18
   9.406500        7.0595241E-18
   9.568000        7.0446713E-18
   9.729500        7.0361166E-18
   9.891000        7.0357460E-18
   10.05250        7.0437101E-18
   10.21400        7.0584000E-18
   10.37550        7.0768420E-18
   10.53700        7.0953700E-18
   10.69850        7.1104280E-18
   10.86000        7.1193028E-18
   11.02150        7.1206528E-18
   11.18300        7.1147269E-18
   11.34450        7.1032845E-18
   11.50600        7.0892332E-18
   11.66750        7.0760719E-18
   11.82900        7.0672169E-18
   11.99050        7.0653425E-18
   12.15200        7.0718210E-18
   12.31350        7.0864025E-18
   12.47500        7.1072070E-18
   12.63650        7.1310728E-18
   12.79800        7.1541999E-18
   12.95950        7.1729587E-18
   13.12100        7.1846658E-18
   13.28250        7.1881507E-18
   13.44400        7.1839660E-18
   13.60550        7.1742078E-18
   13.76700        7.1620126E-18
   13.92850        7.1508581E-18
   14.09000        7.1438478E-18
   14.25150        7.1431083E-18
   14.41300        7.1494014E-18
   14.57450        7.1620118E-18
   14.73600        7.1788987E-18
   14.89750        7.1970934E-18
   15.05900        7.2132838E-18
   15.22050        7.2244921E-18
   15.38200        7.2287206E-18
   15.54350        7.2254384E-18
   15.70500        7.2157587E-18
   15.86650        7.2022591E-18
   16.02800        7.1884559E-18
   16.18950        7.1780442E-18
   16.35100        7.1740911E-18
   16.51250        7.1783693E-18
   16.67400        7.1909987E-18
   16.83550        7.2104391E-18
   16.99700        7.2338326E-18
   17.15850        7.2575917E-18
   17.32000        7.2780934E-18
   17.48150        7.2923556E-18
   17.64300        7.2985859E-18
   17.80450        7.2965097E-18
   17.96600        7.2874331E-18
   18.12750        7.2740071E-18
   18.28900        7.2597291E-18
   18.45050        7.2482346E-18
   18.61200        7.2425420E-18
   18.77350        7.2443907E-18
   18.93500        7.2538595E-18
   19.09650        7.2693476E-18
   19.25800        7.2879484E-18
   19.41950        7.3061042E-18
   19.58100        7.3203929E-18
   19.74250        7.3282420E-18
   19.90400        7.3284381E-18
   20.06550        7.3213227E-18
   20.22700        7.3086809E-18
   20.38850        7.2933714E-18
   20.55000        7.2787824E-18
   20.71150        7.2681986E-18
   20.87300        7.2641860E-18
   21.03450        7.2680837E-18
   21.19600        7.2797080E-18
   21.35750        7.2973353E-18
   21.51900        7.3180065E-18
   21.68050        7.3381219E-18
   21.84200        7.3542047E-18
   22.00350        7.3636569E-18
   22.16500        7.3653320E-18
   22.32650        7.3597617E-18
   22.48800        7.3490101E-18
   22.64950        7.3361821E-18
   22.81100        7.3247397E-18
   22.97250        7.3177757E-18
   23.13400        7.3174175E-18
   23.29550        7.3244444E-18
   23.45700        7.3381789E-18
   23.61850        7.3566342E-18
   23.78000        7.3768943E-18
   23.94150        7.3956556E-18
   24.10300        7.4098657E-18
   24.26450        7.4173385E-18
   24.42600        7.4172276E-18
   24.58750        7.4102512E-18
   24.74900        7.3985706E-18
   24.91050        7.3853489E-18
   25.07200        7.3740596E-18
   25.23350        7.3677209E-18
   25.39500        7.3682379E-18
   25.55650        7.3760101E-18
   25.71800        7.3898860E-18
   25.87950        7.4074520E-18
   26.04100        7.4255615E-18
   26.20250        7.4409743E-18
   26.36400        7.4509807E-18
   26.52550        7.4539073E-18
   26.68700        7.4494207E-18
   26.84850        7.4386036E-18
   27.01000        7.4237706E-18
   27.17150        7.4080517E-18
   27.33300        7.3947879E-18
   27.49450        7.3868552E-18
   27.65600        7.3860487E-18
   27.81750        7.3926885E-18
   27.97900        7.4055429E-18
   28.14050        7.4221146E-18
   28.30200        7.4392100E-18
   28.46350        7.4536550E-18
   28.62500        7.4629790E-18
   28.78650        7.4659097E-18
   28.94800        7.4625902E-18
   29.10950        7.4544946E-18
   29.27100        7.4441003E-18
   29.43250        7.4343892E-18
   29.59400        7.4282821E-18
   29.75550        7.4280811E-18
   29.91700        7.4350087E-18
   30.07850        7.4489211E-18
   30.24000        7.4682713E-18
   30.40150        7.4903512E-18
   30.56300        7.5118017E-18
   30.72450        7.5293007E-18
   30.88600        7.5402848E-18
   31.04750        7.5435141E-18
   31.20900        7.5393435E-18
   31.37050        7.5296233E-18
   31.53200        7.5172652E-18
   31.69350        7.5055929E-18
   31.85500        7.4976321E-18
   32.01650        7.4955228E-18
   32.17800        7.5001318E-18
   32.33950        7.5109480E-18
   32.50100        7.5262161E-18
   32.66250        7.5432916E-18
   32.82400        7.5591454E-18
   32.98550        7.5709418E-18
   33.14700        7.5766038E-18
   33.30850        7.5752704E-18
   33.47000        7.5675264E-18
   33.63150        7.5553461E-18
   33.79300        7.5417167E-18
   33.95450        7.5300154E-18
   34.11600        7.5232772E-18
   34.27750        7.5235270E-18
   34.43900        7.5313471E-18
   34.60050        7.5457682E-18
   34.76200        7.5645063E-18
   34.92350        7.5844521E-18
   35.08500        7.6023035E-18
   35.24650        7.6151943E-18
   35.40800        7.6212095E-18
   35.56950        7.6197157E-18
   35.73100        7.6114645E-18
   35.89250        7.5984621E-18
   36.05400        7.5836026E-18
   36.21550        7.5701287E-18
   36.37700        7.5609792E-18
   36.53850        7.5581792E-18
   36.70000        7.5623829E-18
   36.86150        7.5727194E-18
   37.02300        7.5869792E-18
   37.18450        7.6021124E-18
   37.34600        7.6149246E-18
   37.50750        7.6227845E-18
   37.66900        7.6241824E-18
   37.83050        7.6190200E-18
   37.99200        7.6085942E-18
   38.15350        7.5953080E-18
   38.31500        7.5821865E-18
   38.47650        7.5723050E-18
   38.63800        7.5682228E-18
   38.79950        7.5714894E-18
   38.96100        7.5823213E-18
   39.12250        7.5994994E-18
   39.28400        7.6205420E-18
   39.44550        7.6421496E-18
   39.60700        7.6608605E-18
   39.76850        7.6737810E-18
   39.93000        7.6792197E-18
   40.09150        7.6770566E-18
   40.25300        7.6687551E-18
   40.41450        7.6570033E-18
   40.57600        7.6450960E-18
   40.73750        7.6362121E-18
   40.89900        7.6327636E-18
   41.06050        7.6359540E-18
   41.22200        7.6455998E-18
   41.38350        7.6602260E-18
   41.54500        7.6773809E-18
   41.70650        7.6941081E-18
   41.86800        7.7075019E-18
   42.02950        7.7152683E-18
   42.19100        7.7162013E-18
   42.35250        7.7104797E-18
   42.51400        7.6996941E-18
   42.67550        7.6865552E-18
   42.83700        7.6743435E-18
   42.99850        7.6661850E-18
   43.16000        7.6643503E-18
   43.32150        7.6697402E-18
   43.48300        7.6816980E-18
   43.64450        7.6981771E-18
   43.80600        7.7162146E-18
   43.96750        7.7325696E-18
   44.12900        7.7443858E-18
   44.29050        7.7497418E-18
   44.45200        7.7480023E-18
   44.61350        7.7399290E-18
   44.77500        7.7275428E-18
   44.93650        7.7137603E-18
   45.09800        7.7018489E-18
   45.25950        7.6947806E-18
   45.42100        7.6945970E-18
   45.58250        7.7019333E-18
   45.74400        7.7158208E-18
   45.90550        7.7338633E-18
   46.06700        7.7527362E-18
   46.22850        7.7689250E-18
   46.39000        7.7795021E-18
   46.55150        7.7827563E-18
   46.71300        7.7785261E-18
   46.87450        7.7681822E-18
   47.03600        7.7542988E-18
   47.19750        7.7401044E-18
   47.35900        7.7288473E-18
   47.52050        7.7231835E-18
   47.68200        7.7246824E-18
   47.84350        7.7335159E-18
   48.00500        7.7483844E-18
   48.16650        7.7667139E-18
   48.32800        7.7851253E-18
   48.48950        7.8001056E-18
   48.65100        7.8087645E-18
   48.81250        7.8094974E-18
   48.97400        7.8023753E-18
   49.13550        7.7891611E-18
   49.29700        7.7729120E-18
   49.45850        7.7572973E-18
   49.62000        7.7457871E-18
   49.78150        7.7409332E-18
   49.94300        7.7438854E-18
   50.10450        7.7542367E-18
   50.26600        7.7701732E-18
   50.42750        7.7888733E-18
   50.58900        7.8070572E-18
   50.75050        7.8215974E-18
   50.91200        7.8301099E-18
   51.07350        7.8314259E-18
   51.23500        7.8258780E-18
   51.39650        7.8152967E-18
   51.55800        7.8026971E-18
   51.71950        7.7916642E-18
   51.88100        7.7855720E-18
   52.04250        7.7868037E-18
   52.20400        7.7961839E-18
   52.36550        7.8127730E-18
   52.52700        7.8340696E-18
   52.68850        7.8565639E-18
   52.85000        7.8764932E-18
   53.01150        7.8906032E-18
   53.17300        7.8967641E-18
   53.33450        7.8943380E-18
   53.49600        7.8842505E-18
   53.65750        7.8687963E-18
   53.81900        7.8512096E-18
   53.98050        7.8350663E-18
   54.14200        7.8236041E-18
   54.30350        7.8190728E-18
   54.46500        7.8222500E-18
   54.62650        7.8322415E-18
   54.78800        7.8466618E-18
   54.94950        7.8621598E-18
   55.11100        7.8751929E-18
   55.27250        7.8828443E-18
   55.43400        7.8834821E-18
   55.59550        7.8770987E-18
   55.75700        7.8652651E-18
   55.91850        7.8507431E-18
   56.08000        7.8368795E-18
   56.24150        7.8269294E-18
   56.40300        7.8234312E-18
   56.56450        7.8277441E-18
   56.72600        7.8397796E-18
   56.88750        7.8579850E-18
   57.04900        7.8795761E-18
   57.21050        7.9010249E-18
   57.37200        7.9187365E-18
   57.53350        7.9298009E-18
   57.69500        7.9326439E-18
   57.85650        7.9274194E-18
   58.01800        7.9159944E-18
   58.17950        7.9015278E-18
   58.34100        7.8877395E-18
   58.50250        7.8780607E-18
   58.66400        7.8748926E-18
   58.82550        7.8791369E-18
   58.98700        7.8900896E-18
   59.14850        7.9056720E-18
   59.31000        7.9229047E-18
   59.47150        7.9385160E-18
   59.63300        7.9495696E-18
   59.79450        7.9540166E-18
   59.95600        7.9511132E-18
   60.11750        7.9416279E-18
   60.27900        7.9277701E-18
   60.44050        7.9128122E-18
   60.60200        7.9004450E-18
   60.76350        7.8939682E-18
   60.92500        7.8955250E-18
   61.08650        7.9055636E-18
   61.24800        7.9226954E-18
   61.40950        7.9439903E-18
   61.57100        7.9656376E-18
   61.73250        7.9837868E-18
   61.89400        7.9953541E-18
   62.05550        7.9986239E-18
   62.21700        7.9935277E-18
   62.37850        7.9816006E-18
   62.54000        7.9656385E-18
   62.70150        7.9491635E-18
   62.86300        7.9357615E-18
   63.02450        7.9284021E-18
   63.18600        7.9288422E-18
   63.34750        7.9372281E-18
   63.50900        7.9520073E-18
   63.67050        7.9702128E-18
   63.83200        7.9880890E-18
   63.99350        8.0019260E-18
   64.15500        8.0089116E-18
   64.31650        8.0077709E-18
   64.47800        7.9990317E-18
   64.63950        7.9848654E-18
   64.80100        7.9685609E-18
   64.96250        7.9537974E-18
   65.12400        7.9438778E-18
   65.28550        7.9411051E-18
   65.44700        7.9463577E-18
   65.60850        7.9589524E-18
   65.77000        7.9767549E-18
   65.93150        7.9965510E-18
   66.09300        8.0146324E-18
   66.25450        8.0275198E-18
   66.41600        8.0327038E-18
   66.57750        8.0292453E-18
   66.73900        8.0180552E-18
   66.90050        8.0017606E-18
   67.06200        7.9841400E-18
   67.22350        7.9692739E-18
   67.38500        7.9606084E-18
   67.54650        7.9602031E-18
   67.70800        7.9683202E-18
   67.86950        7.9834568E-18
   68.03100        8.0027408E-18
   68.19250        8.0225857E-18
   68.35400        8.0394172E-18
   68.51550        8.0503442E-18
   68.67700        8.0536794E-18
   68.83850        8.0492416E-18
   69.00000        8.0384146E-18
   69.16150        8.0239241E-18
   69.32300        8.0093417E-18
   69.48450        7.9983741E-18
   69.64600        7.9940513E-18
   69.80750        7.9980102E-18
   69.96900        8.0100663E-18
   70.13050        8.0282056E-18
   70.29200        8.0490290E-18
   70.45350        8.0685364E-18
   70.61500        8.0830344E-18
   70.77650        8.0899447E-18
   70.93800        8.0883127E-18
   71.09950        8.0789316E-18
   71.26100        8.0641027E-18
   71.42250        8.0471282E-18
   71.58400        8.0316566E-18
   71.74550        8.0209983E-18
   71.90700        8.0175167E-18
   72.06850        8.0221688E-18
   72.23000        8.0342887E-18
   72.39150        8.0516710E-18
   72.55300        8.0709857E-18
   72.71450        8.0884731E-18
   72.87600        8.1007824E-18
   73.03750        8.1057504E-18
   73.19900        8.1029132E-18
   73.36050        8.0936091E-18
   73.52200        8.0806381E-18
   73.68350        8.0675909E-18
   73.84500        8.0580254E-18
   74.00650        8.0547117E-18
   74.16800        8.0590793E-18
   74.32950        8.0709849E-18
   74.49100        8.0887651E-18
   74.65250        8.1095604E-18
   74.81400        8.1298239E-18
   74.97550        8.1459647E-18
   75.13700        8.1550314E-18
   75.29850        8.1553333E-18
   75.46000        8.1468605E-18
   75.62150        8.1313732E-18
   75.78300        8.1120875E-18
   75.94450        8.0929961E-18
   76.10600        8.0779671E-18
   76.26750        8.0698574E-18
   76.42900        8.0698889E-18
   76.59050        8.0774369E-18
   76.75200        8.0902797E-18
   76.91350        8.1051921E-18
   77.07500        8.1187124E-18
   77.23650        8.1278784E-18
   77.39800        8.1307867E-18
   77.55950        8.1269056E-18
   77.72100        8.1171407E-18
   77.88250        8.1036552E-18
   78.04400        8.0894914E-18
   78.20550        8.0780143E-18
   78.36700        8.0722372E-18
   78.52850        8.0741579E-18
   78.69000        8.0842330E-18
   78.85150        8.1011745E-18
   79.01300        8.1221485E-18
   79.17450        8.1433789E-18
   79.33600        8.1610003E-18
   79.49750        8.1719439E-18
   79.65900        8.1746157E-18
   79.82050        8.1691886E-18
   79.98200        8.1574856E-18
   80.14350        8.1424996E-18
   80.30500        8.1277311E-18
   80.46650        8.1164848E-18
   80.62800        8.1112619E-18
   80.78950        8.1133316E-18
   80.95100        8.1225124E-18
   81.11250        8.1371899E-18
   81.27400        8.1545955E-18
   81.43550        8.1713285E-18
   81.59700        8.1840596E-18
   81.75850        8.1902767E-18
   81.92000        8.1888945E-18
   82.08150        8.1805557E-18
   82.24300        8.1674995E-18
   82.40450        8.1530404E-18
   82.56600        8.1407824E-18
   82.72750        8.1337836E-18
   82.88900        8.1339060E-18
   83.05050        8.1414722E-18
   83.21200        8.1552795E-18
   83.37350        8.1729109E-18
   83.53500        8.1912412E-18
   83.69650        8.2070255E-18
   83.85800        8.2174943E-18
   84.01950        8.2208774E-18
   84.18100        8.2167870E-18
   84.34250        8.2063712E-18
   84.50400        8.1921643E-18
   84.66550        8.1776076E-18
   84.82700        8.1663034E-18
   84.98850        8.1611765E-18
   85.15000        8.1637697E-18
   85.31150        8.1738630E-18
   85.47300        8.1895637E-18
   85.63450        8.2078022E-18
   85.79600        8.2250952E-18
   85.95750        8.2383458E-18
   86.11900        8.2454670E-18
   86.28050        8.2457243E-18
   86.44200        8.2397628E-18
   86.60350        8.2294032E-18
   86.76500        8.2172602E-18
   86.92650        8.2062752E-18
   87.08800        8.1991904E-18
   87.24950        8.1980216E-18
   87.41100        8.2036051E-18
   87.57250        8.2153254E-18
   87.73400        8.2311394E-18
   87.89550        8.2479527E-18
   88.05700        8.2623002E-18
   88.21850        8.2711692E-18
   88.38000        8.2727342E-18
   88.54150        8.2667876E-18
   88.70300        8.2547538E-18
   88.86450        8.2392963E-18
   89.02600        8.2236634E-18
   89.18750        8.2109686E-18
   89.34900        8.2035786E-18
   89.51050        8.2027225E-18
   89.67200        8.2083374E-18
   89.83350        8.2191395E-18
   89.99500        8.2328724E-18
   90.15650        8.2467078E-18
   90.31800        8.2577763E-18
   90.47950        8.2637502E-18
   90.64100        8.2633863E-18
   90.80250        8.2568722E-18
   90.96400        8.2458509E-18
   91.12550        8.2330817E-18
   91.28700        8.2217816E-18
   91.44850        8.2148481E-18
   91.61000        8.2141599E-18
   91.77150        8.2201661E-18
   91.93300        8.2318442E-18
   92.09450        8.2470015E-18
   92.25600        8.2627932E-18
   92.41750        8.2763110E-18
   92.57900        8.2851138E-18
   92.74050        8.2876442E-18
   92.90200        8.2834934E-18
   93.06350        8.2735010E-18
   93.22500        8.2596623E-18
   93.38650        8.2448152E-18
   93.54800        8.2321089E-18
   93.70950        8.2243392E-18
   93.87100        8.2232936E-18
   94.03250        8.2293064E-18
   94.19400        8.2411698E-18
   94.35550        8.2564537E-18
   94.51700        8.2721370E-18
   94.67850        8.2853661E-18
   94.84000        8.2941011E-18
   95.00150        8.2974950E-18
   95.16300        8.2959383E-18
   95.32450        8.2908371E-18
   95.48600        8.2842312E-18
   95.64750        8.2783756E-18
   95.80900        8.2753440E-18
   95.97050        8.2766782E-18
   96.13200        8.2830922E-18
   96.29350        8.2942633E-18
   96.45500        8.3087745E-18
   96.61650        8.3242907E-18
   96.77800        8.3380037E-18
   96.93950        8.3472599E-18
   97.10100        8.3502270E-18
   97.26250        8.3463897E-18
   97.42400        8.3367018E-18
   97.58550        8.3233453E-18
   97.74700        8.3091732E-18
   97.90850        8.2970219E-18
   98.07000        8.2891000E-18
   98.23150        8.2865961E-18
   98.39300        8.2895649E-18
   98.55450        8.2970335E-18
   98.71600        8.3072665E-18
   98.87750        8.3181043E-18
   99.03900        8.3273290E-18
   99.20050        8.3330721E-18
   99.36200        8.3341888E-18
   99.52350        8.3305624E-18
   99.68500        8.3232220E-18
   99.84650        8.3141867E-18
   100.0080        8.3060316E-18
   100.1695        8.3012612E-18
   100.3310        8.3016665E-18
   100.4925        8.3078712E-18
   100.6540        8.3191879E-18
   100.8155        8.3338347E-18
   100.9770        8.3493998E-18
   101.1385        8.3633924E-18
   101.3000        8.3737470E-18
   101.4615        8.3791510E-18
   101.6230        8.3792147E-18
   101.7845        8.3744824E-18
   101.9460        8.3663289E-18
   102.1075        8.3567551E-18
   102.2690        8.3480573E-18
   102.4305        8.3423911E-18
   102.5920        8.3412868E-18
   102.7535        8.3452416E-18
   102.9150        8.3535324E-18
   103.0765        8.3643470E-18
   103.2380        8.3752360E-18
   103.3995        8.3837443E-18
   103.5610        8.3880432E-18
   103.7225        8.3873409E-18
   103.8840        8.3819965E-18
   104.0455        8.3733177E-18
   104.2070        8.3631715E-18
   104.3685        8.3535564E-18
   104.5300        8.3462350E-18
   104.6915        8.3424796E-18
   104.8530        8.3429139E-18
   105.0145        8.3474104E-18
   105.1760        8.3550602E-18
   105.3375        8.3642535E-18
   105.4990        8.3729314E-18
   105.6605        8.3790054E-18
   105.8220        8.3808864E-18
   105.9835        8.3779450E-18
   106.1450        8.3707609E-18
   106.3065        8.3610225E-18
   106.4680        8.3511021E-18
   106.6295        8.3434391E-18
   106.7910        8.3399261E-18
   106.9525        8.3414936E-18
   107.1140        8.3479820E-18
   107.2755        8.3582920E-18
   107.4370        8.3706972E-18
   107.5985        8.3832166E-18
   107.7600        8.3939551E-18
   107.9215        8.4013798E-18
   108.0830        8.4045603E-18
   108.2445        8.4033502E-18
   108.4060        8.3984773E-18
   108.5675        8.3914818E-18
   108.7290        8.3844417E-18
   108.8905        8.3795075E-18
   109.0520        8.3783611E-18
   109.2135        8.3817558E-18
   109.3750        8.3892997E-18
   109.5365        8.3995733E-18
   109.6980        8.4105152E-18
   109.8595        8.4199724E-18
   110.0210        8.4261994E-18
   110.1825        8.4281995E-18
   110.3440        8.4258412E-18
   110.5055        8.4197920E-18
   110.6670        8.4113424E-18
   110.8285        8.4021847E-18
   110.9900        8.3941619E-18
   111.1515        8.3889812E-18
   111.3130        8.3878984E-18
   111.4745        8.3914032E-18
   111.6360        8.3990306E-18
   111.7975        8.4093687E-18
   111.9590        8.4203537E-18
   112.1205        8.4297736E-18
   112.2820        8.4358518E-18
   112.4435        8.4377038E-18
   112.6050        8.4355424E-18
   112.7665        8.4305446E-18
   112.9280        8.4244797E-18
   113.0895        8.4192370E-18
   113.2510        8.4164056E-18
   113.4125        8.4170044E-18
   113.5740        8.4213835E-18
   113.7355        8.4292227E-18
   113.8970        8.4395923E-18
   114.0585        8.4510636E-18
   114.2200        8.4618773E-18
   114.3815        8.4702302E-18
   114.5430        8.4746498E-18
   114.7045        8.4743893E-18
   114.8660        8.4696967E-18
   115.0275        8.4618418E-18
   115.1890        8.4528313E-18
   115.3505        8.4448970E-18
   115.5120        8.4399025E-18
   115.6735        8.4388850E-18
   115.8350        8.4418604E-18
   115.9965        8.4479211E-18
   116.1580        8.4555701E-18
   116.3195        8.4631156E-18
   116.4810        8.4690358E-18
   116.6425        8.4722188E-18
   116.8040        8.4720972E-18
   116.9655        8.4687090E-18
   117.1270        8.4627144E-18
   117.2885        8.4553327E-18
   117.4500        8.4481759E-18
   117.6115        8.4429423E-18
   117.7730        8.4410134E-18
   117.9345        8.4430565E-18
   118.0960        8.4487831E-18
   118.2575        8.4569689E-18
   118.4190        8.4657543E-18
   118.5805        8.4731361E-18
   118.7420        8.4774763E-18