  -27.90000        3.2004149E-18
  -27.73850        3.1969923E-18
  -27.57700        3.1907768E-18
  -27.41550        3.1828299E-18
  -27.25400        3.1744413E-18
  -27.09250        3.1668802E-18
  -26.93100        3.1611487E-18
  -26.76950        3.1577868E-18
  -26.60800        3.1567708E-18
  -26.44650        3.1575293E-18
  -26.28500        3.1590720E-18
  -26.12350        3.1602100E-18
  -25.96200        3.1598153E-18
  -25.80050        3.1570659E-18
  -25.63900        3.1516274E-18
  -25.47750        3.1437223E-18
  -25.31600        3.1340910E-18
  -25.15450        3.1238414E-18
  -24.99300        3.1142281E-18
  -24.83150        3.1064007E-18
  -24.67000        3.1011785E-18
  -24.50850        3.0988831E-18
  -24.34700        3.0992749E-18
  -24.18550        3.1015942E-18
  -24.02400        3.1047087E-18
  -23.86250        3.1073400E-18
  -23.70100        3.1083189E-18
  -23.53950        3.1068265E-18
  -23.37800        3.1025607E-18
  -23.21650        3.0957981E-18
  -23.05500        3.0873327E-18
  -22.89350        3.0783065E-18
  -22.73200        3.0699675E-18
  -22.57050        3.0634067E-18
  -22.40900        3.0593364E-18
  -22.24750        3.0579451E-18
  -22.08600        3.0588699E-18
  -21.92450        3.0612726E-18
  -21.76300        3.0640186E-18
  -21.60150        3.0659083E-18
  -21.44000        3.0659189E-18
  -21.27850        3.0634144E-18
  -21.11700        3.0582768E-18
  -20.95550        3.0509345E-18
  -20.79400        3.0422787E-18
  -20.63250        3.0334839E-18
  -20.47100        3.0257642E-18
  -20.30950        3.0201218E-18
  -20.14800        3.0171316E-18
  -19.98650        3.0168228E-18
  -19.82500        3.0186718E-18
  -19.66350        3.0217125E-18
  -19.50200        3.0247404E-18
  -19.34050        3.0265639E-18
  -19.17900        3.0262477E-18
  -19.01750        3.0233013E-18
  -18.85600        3.0177755E-18
  -18.69450        3.0102453E-18
  -18.53300        3.0016972E-18
  -18.37150        2.9933307E-18
  -18.21000        2.9863168E-18
  -18.04850        2.9815638E-18
  -17.88700        2.9795300E-18
  -17.72550        2.9801270E-18
  -17.56400        2.9827300E-18
  -17.40250        2.9863075E-18
  -17.24100        2.9896305E-18
  -17.07950        2.9915322E-18
  -16.91800        2.9911544E-18
  -16.75650        2.9881236E-18
  -16.59500        2.9826253E-18
  -16.43350        2.9753556E-18
  -16.27200        2.9673698E-18
  -16.11050        2.9598555E-18
  -15.94900        2.9538897E-18
  -15.78750        2.9502187E-18
  -15.62600        2.9491113E-18
  -15.46450        2.9503098E-18
  -15.30300        2.9530863E-18
  -15.14150        2.9563871E-18
  -14.98000        2.9590486E-18
  -14.81850        2.9600381E-18
  -14.65700        2.9586679E-18
  -14.49550        2.9547491E-18
  -14.33400        2.9486375E-18
  -14.17250        2.9411670E-18
  -14.01100        2.9334775E-18
  -13.84950        2.9267747E-18
  -13.68800        2.9220742E-18
  -13.52650        2.9199858E-18
  -13.36500        2.9205868E-18
  -13.20350        2.9234114E-18
  -13.04200        2.9275473E-18
  -12.88050        2.9318277E-18
  -12.71900        2.9350651E-18
  -12.55750        2.9362873E-18
  -12.39600        2.9349282E-18
  -12.23450        2.9309385E-18
  -12.07300        2.9247946E-18
  -11.91150        2.9174116E-18
  -11.75000        2.9099604E-18
  -11.58850        2.9036385E-18
  -11.42700        2.8994250E-18
  -11.26550        2.8978773E-18
  -11.10400        2.8990141E-18
  -10.94250        2.9023061E-18
  -10.78100        2.9067844E-18
  -10.61950        2.9112392E-18
  -10.45800        2.9144702E-18
  -10.29650        2.9155279E-18
  -10.13500        2.9138998E-18
  -9.973500        2.9096020E-18
  -9.812000        2.9031697E-18
  -9.650500        2.8955420E-18
  -9.489000        2.8878749E-18
  -9.327500        2.8813172E-18
  -9.166000        2.8767876E-18
  -9.004500        2.8747976E-18
  -8.843000        2.8753549E-18
  -8.681500        2.8779599E-18
  -8.520000        2.8817095E-18
  -8.358500        2.8854852E-18
  -8.197000        2.8881898E-18
  -8.035500        2.8889812E-18
  -7.874000        2.8874524E-18
  -7.712500        2.8837181E-18
  -7.551000        2.8783828E-18
  -7.389500        2.8724083E-18
  -7.228000        2.8669052E-18
  -7.066500        2.8628998E-18
  -6.905000        2.8611265E-18
  -6.743500        2.8618832E-18
  -6.582000        2.8649752E-18
  -6.420500        2.8697536E-18
  -6.259000        2.8752442E-18
  -6.097500        2.8803308E-18
  -5.936000        2.8839735E-18
  -5.774500        2.8854163E-18
  -5.613000        2.8843424E-18
  -5.451500        2.8809462E-18
  -5.290000        2.8759014E-18
  -5.128500        2.8702272E-18
  -4.967000        2.8650724E-18
  -4.805500        2.8614717E-18
  -4.644000        2.8601242E-18
  -4.482500        2.8612421E-18
  -4.321000        2.8645124E-18
  -4.159500        2.8691609E-18
  -3.998000        2.8741197E-18
  -3.836500        2.8782393E-18
  -3.675000        2.8805161E-18
  -3.513500        2.8802805E-18
  -3.352000        2.8773248E-18
  -3.190500        2.8719409E-18
  -3.029000        2.8648666E-18
  -2.867500        2.8571509E-18
  -2.706000        2.8499567E-18
  -2.544500        2.8443335E-18
  -2.383000        2.8410141E-18
  -2.221500        2.8402636E-18
  -2.060000        2.8418319E-18
  -1.898500        2.8450116E-18
  -1.737000        2.8487951E-18
  -1.575500        2.8521016E-18
  -1.414000        2.8540074E-18
  -1.252500        2.8539433E-18
  -1.091000        2.8518050E-18
 -0.9295000        2.8479655E-18
 -0.7680000        2.8431871E-18
 -0.6065000        2.8384583E-18
 -0.4450000        2.8347904E-18
 -0.2835000        2.8330129E-18
 -0.1220000        2.8336015E-18
  3.9500002E-02    2.8365719E-18
  0.2010000        2.8414643E-18
  0.3625000        2.8474160E-18
  0.5240000        2.8533310E-18
  0.6855000        2.8580962E-18
  0.8470000        2.8608203E-18
   1.008500        2.8610231E-18
   1.170000        2.8587422E-18
   1.331500        2.8545223E-18
   1.493000        2.8492939E-18
   1.654500        2.8441644E-18
   1.816000        2.8401794E-18
   1.977500        2.8381030E-18
   2.139000        2.8382608E-18
   2.300500        2.8404785E-18
   2.462000        2.8441160E-18
   2.623500        2.8481896E-18
   2.785000        2.8515577E-18
   2.946500        2.8531389E-18
   3.108000        2.8521268E-18
   3.269500        2.8481623E-18
   3.431000        2.8414283E-18
   3.592500        2.8326368E-18
   3.754000        2.8229112E-18
   3.915500        2.8135670E-18
   4.077000        2.8058500E-18
   4.238500        2.8006847E-18
   4.400000        2.7984895E-18
   4.561500        2.7991062E-18
   4.723000        2.8018539E-18
   4.884500        2.8056908E-18
   5.046000        2.8094414E-18
   5.207500        2.8120323E-18
   5.369000        2.8127034E-18
   5.530500        2.8111398E-18
   5.692000        2.8075240E-18
   5.853500        2.8024939E-18
   6.015000        2.7970167E-18
   6.176500        2.7922009E-18
   6.338000        2.7890708E-18
   6.499500        2.7883464E-18
   6.661000        2.7902806E-18
   6.822500        2.7945838E-18
   6.984000        2.8004690E-18
   7.145500        2.8068085E-18
   7.307000        2.8123692E-18
   7.468500        2.8160729E-18
   7.630000        2.8172173E-18
   7.791500        2.8156149E-18
   7.953000        2.8116113E-18
   8.114500        2.8060020E-18
   8.276000        2.7998602E-18
   8.437500        2.7943222E-18
   8.599000        2.7903693E-18
   8.760500        2.7886391E-18
   8.922000        2.7893035E-18
   9.083500        2.7920305E-18
   9.245000        2.7960413E-18
   9.406500        2.8002653E-18
   9.568000        2.8035597E-18
   9.729500        2.8049599E-18
   9.891000        2.8038999E-18
   10.05250        2.8003486E-18
   10.21400        2.7948253E-18
   10.37550        2.7882902E-18
   10.53700        2.7819352E-18
   10.69850        2.7769295E-18
   10.86000        2.7741766E-18
   11.02150        2.7741371E-18
   11.18300        2.7767494E-18
   11.34450        2.7814428E-18
   11.50600        2.7872484E-18
   11.66750        2.7929700E-18
   11.82900        2.7973989E-18
   11.99050        2.7995324E-18
   12.15200        2.7987681E-18
   12.31350        2.7950307E-18
   12.47500        2.7888022E-18
   12.63650        2.7810352E-18
   12.79800        2.7729619E-18
   12.95950        2.7658345E-18
   13.12100        2.7606553E-18
   13.28250        2.7579709E-18
   13.44400        2.7577714E-18
   13.60550        2.7595229E-18
   13.76700        2.7623134E-18
   13.92850        2.7650690E-18
   14.09000        2.7667876E-18
   14.25150        2.7667397E-18
   14.41300        2.7646043E-18
   14.57450        2.7605238E-18
   14.73600        2.7550752E-18
   14.89750        2.7491637E-18
   15.05900        2.7438522E-18
   15.22050        2.7401477E-18
   15.38200        2.7387783E-18
   15.54350        2.7400199E-18
   15.70500        2.7436005E-18
   15.86650        2.7487290E-18
   16.02800        2.7542505E-18
   16.18950        2.7588891E-18
   16.35100        2.7615301E-18
   16.51250        2.7614629E-18
   16.67400        2.7585282E-18
   16.83550        2.7531451E-18
   16.99700        2.7462107E-18
   17.15850        2.7389123E-18
   17.32000        2.7324929E-18
   17.48150        2.7280154E-18
   17.64300        2.7261662E-18
   17.80450        2.7271204E-18
   17.96600        2.7305000E-18
   18.12750        2.7354323E-18
   18.28900        2.7407070E-18
   18.45050        2.7450166E-18
   18.61200        2.7472260E-18
   18.77350        2.7466299E-18
   18.93500        2.7431088E-18
   19.09650        2.7371630E-18
   19.25800        2.7298000E-18
   19.41950        2.7223122E-18
   19.58100        2.7159915E-18
   19.74250        2.7118670E-18
   19.90400        2.7105089E-18
   20.06550        2.7119389E-18
   20.22700        2.7156472E-18
   20.38850        2.7207046E-18
   20.55000        2.7259381E-18
   20.71150        2.7301479E-18
   20.87300        2.7323271E-18
   21.03450        2.7318628E-18
   21.19600        2.7286711E-18
   21.35750        2.7232302E-18
   21.51900        2.7164994E-18
   21.68050        2.7097182E-18
   21.84200        2.7041316E-18
   22.00350        2.7007052E-18
   22.16500        2.6999066E-18
   22.32650        2.7016068E-18
   22.48800        2.7051286E-18
   22.64950        2.7094140E-18
   22.81100        2.7132703E-18
   22.97250        2.7156215E-18
   23.13400        2.7157165E-18
   23.29550        2.7132622E-18
   23.45700        2.7084687E-18
   23.61850        2.7020088E-18
   23.78000        2.6949058E-18
   23.94150        2.6883508E-18
   24.10300        2.6834821E-18
   24.26450        2.6811509E-18
   24.42600        2.6817231E-18
   24.58750        2.6849764E-18
   24.74900        2.6901152E-18
   24.91050        2.6959303E-18
   25.07200        2.7010586E-18
   25.23350        2.7042840E-18
   25.39500        2.7048041E-18
   25.55650        2.7023898E-18
   25.71800        2.6974155E-18
   25.87950        2.6907610E-18
   26.04100        2.6836196E-18
   26.20250        2.6772610E-18
   26.36400        2.6728023E-18
   26.52550        2.6710074E-18
   26.68700        2.6721551E-18
   26.84850        2.6759793E-18
   27.01000        2.6817073E-18
   27.17150        2.6881908E-18
   27.33300        2.6941279E-18
   27.49450        2.6983271E-18
   27.65600        2.6999651E-18
   27.81750        2.6987619E-18
   27.97900        2.6950345E-18
   28.14050        2.6896044E-18
   28.30200        2.6835904E-18
   28.46350        2.6781430E-18
   28.62500        2.6741908E-18
   28.78650        2.6722576E-18
   28.94800        2.6723827E-18
   29.10950        2.6741322E-18
   29.27100        2.6767031E-18
   29.43250        2.6790769E-18
   29.59400        2.6802116E-18
   29.75550        2.6792432E-18
   29.91700        2.6756729E-18
   30.07850        2.6695056E-18
   30.24000        2.6612969E-18
   30.40150        2.6520790E-18
   30.56300        2.6431707E-18
   30.72450        2.6358956E-18
   30.88600        2.6312919E-18
   31.04750        2.6298785E-18
   31.20900        2.6315508E-18
   31.37050        2.6356228E-18
   31.53200        2.6409995E-18
   31.69350        2.6464231E-18
   31.85500        2.6507276E-18
   32.01650        2.6530478E-18
   32.17800        2.6529585E-18
   32.33950        2.6505276E-18
   32.50100        2.6462991E-18
   32.66250        2.6411968E-18
   32.82400        2.6363640E-18
   32.98550        2.6329469E-18
   33.14700        2.6318525E-18
   33.30850        2.6335266E-18
   33.47000        2.6378157E-18
   33.63150        2.6439629E-18
   33.79300        2.6507540E-18
   33.95450        2.6567780E-18
   34.11600        2.6607420E-18
   34.27750        2.6617545E-18
   34.43900        2.6595040E-18
   34.60050        2.6542975E-18
   34.76200        2.6469718E-18
   34.92350        2.6387095E-18
   35.08500        2.6308099E-18
   35.24650        2.6244602E-18
   35.40800        2.6205409E-18
   35.56950        2.6194713E-18
   35.73100        2.6211387E-18
   35.89250        2.6249046E-18
   36.05400        2.6297193E-18
   36.21550        2.6343295E-18
   36.37700        2.6375510E-18
   36.53850        2.6385397E-18
   36.70000        2.6369895E-18
   36.86150        2.6331998E-18
   37.02300        2.6279917E-18
   37.18450        2.6224996E-18
   37.34600        2.6178990E-18
   37.50750        2.6151423E-18
   37.66900        2.6147688E-18
   37.83050        2.6168099E-18
   37.99200        2.6207969E-18
   38.15350        2.6258561E-18
   38.31500        2.6308577E-18
   38.47650        2.6346129E-18
   38.63800        2.6360908E-18
   38.79950        2.6346356E-18
   38.96100        2.6301302E-18
   39.12250        2.6230741E-18
   39.28400        2.6145182E-18
   39.44550        2.6058696E-18
   39.60700        2.5985889E-18
   39.76850        2.5938651E-18
   39.93000        2.5923512E-18
   40.09150        2.5940357E-18
   40.25300        2.5982696E-18
   40.41450        2.6039350E-18
   40.57600        2.6096949E-18
   40.73750        2.6142576E-18
   40.89900        2.6166051E-18
   41.06050        2.6161543E-18
   41.22200        2.6128437E-18
   41.38350        2.6071455E-18
   41.54500        2.5999960E-18
   41.70650        2.5926444E-18
   41.86800        2.5864238E-18
   42.02950        2.5824775E-18
   42.19100        2.5814979E-18
   42.35250        2.5835524E-18
   42.51400        2.5880480E-18
   42.67550        2.5938694E-18
   42.83700        2.5996399E-18
   42.99850        2.6040485E-18
   43.16000        2.6061456E-18
   43.32150        2.6055290E-18
   43.48300        2.6023931E-18
   43.64450        2.5974447E-18
   43.80600        2.5917299E-18
   43.96750        2.5864163E-18
   44.12900        2.5825739E-18
   44.29050        2.5809770E-18
   44.45200        2.5819531E-18
   44.61350        2.5852965E-18
   44.77500        2.5902714E-18
   44.93650        2.5957254E-18
   45.09800        2.6003144E-18
   45.25950        2.6027898E-18
   45.42100        2.6022943E-18
   45.58250        2.5985761E-18
   45.74400        2.5920583E-18
   45.90550        2.5837474E-18
   46.06700        2.5750044E-18
   46.22850        2.5672493E-18
   46.39000        2.5616752E-18
   46.55150        2.5590292E-18
   46.71300        2.5595024E-18
   46.87450        2.5627153E-18
   47.03600        2.5678044E-18
   47.19750        2.5735696E-18
   47.35900        2.5786828E-18
   47.52050        2.5819363E-18
   47.68200        2.5824866E-18
   47.84350        2.5800564E-18
   48.00500        2.5750263E-18
   48.16650        2.5683875E-18
   48.32800        2.5615275E-18
   48.48950        2.5559194E-18
   48.65100        2.5527751E-18
   48.81250        2.5527706E-18
   48.97400        2.5559091E-18
   49.13550        2.5615478E-18
   49.29700        2.5685623E-18
   49.45850        2.5755966E-18
   49.62000        2.5813215E-18
   49.78150        2.5846683E-18
   49.94300        2.5849975E-18
   50.10450        2.5821967E-18
   50.26600        2.5767071E-18
   50.42750        2.5694641E-18
   50.58900        2.5617391E-18
   50.75050        2.5549012E-18
   50.91200        2.5501248E-18
   51.07350        2.5481181E-18
   51.23500        2.5489418E-18
   51.39650        2.5519862E-18
   51.55800        2.5561192E-18
   51.71950        2.5599658E-18
   51.88100        2.5622451E-18
   52.04250        2.5620606E-18
   52.20400        2.5590873E-18
   52.36550        2.5536102E-18
   52.52700        2.5464389E-18
   52.68850        2.5387315E-18
   52.85000        2.5317769E-18
   53.01150        2.5267702E-18
   53.17300        2.5245987E-18
   53.33450        2.5256711E-18
   53.49600        2.5298093E-18
   53.65750        2.5362400E-18
   53.81900        2.5437090E-18
   53.98050        2.5507185E-18
   54.14200        2.5558421E-18
   54.30350        2.5580393E-18
   54.46500        2.5568939E-18
   54.62650        2.5527036E-18
   54.78800        2.5463936E-18
   54.94950        2.5392974E-18
   55.11100        2.5328576E-18
   55.27250        2.5283330E-18
   55.43400        2.5265667E-18
   55.59550        2.5278472E-18
   55.75700        2.5318712E-18
   55.91850        2.5377967E-18
   56.08000        2.5443811E-18
   56.24150        2.5501958E-18
   56.40300        2.5538885E-18
   56.56450        2.5544671E-18
   56.72600        2.5515296E-18
   56.88750        2.5453890E-18
   57.04900        2.5370320E-18
   57.21050        2.5279146E-18
   57.37200        2.5196350E-18
   57.53350        2.5135787E-18
   57.69500        2.5106212E-18
   57.85650        2.5109667E-18
   58.01800        2.5141487E-18
   58.17950        2.5191682E-18
   58.34100        2.5247221E-18
   58.50250        2.5294596E-18
   58.66400        2.5322255E-18
   58.82550        2.5322596E-18
   58.98700        2.5293413E-18
   59.14850        2.5238482E-18
   59.31000        2.5167171E-18
   59.47150        2.5092853E-18
   59.63300        2.5030241E-18
   59.79450        2.4992129E-18
   59.95600        2.4986256E-18
   60.11750        2.5013290E-18
   60.27900        2.5066437E-18
   60.44050        2.5132985E-18
   60.60200        2.5197259E-18
   60.76350        2.5244192E-18
   60.92500        2.5262543E-18
   61.08650        2.5247093E-18
   61.24800        2.5199375E-18
   61.40950        2.5127131E-18
   61.57100        2.5042719E-18
   61.73250        2.4960890E-18
   61.89400        2.4896207E-18
   62.05550        2.4860425E-18
   62.21700        2.4860187E-18
   62.37850        2.4895390E-18
   62.54000        2.4958827E-18
   62.70150        2.5037318E-18
   62.86300        2.5114324E-18
   63.02450        2.5173538E-18
   63.18600        2.5202498E-18
   63.34750        2.5195402E-18
   63.50900        2.5154225E-18
   63.67050        2.5088084E-18
   63.83200        2.5010939E-18
   63.99350        2.4938526E-18
   64.15500        2.4885104E-18
   64.31650        2.4860764E-18
   64.47800        2.4869638E-18
   64.63950        2.4909198E-18
   64.80100        2.4970639E-18
   64.96250        2.5040387E-18
   65.12400        2.5102562E-18
   65.28550        2.5142113E-18
   65.44700        2.5148104E-18
   65.60850        2.5116343E-18
   65.77000        2.5050675E-18
   65.93150        2.4962359E-18
   66.09300        2.4867667E-18
   66.25450        2.4784201E-18
   66.41600        2.4726956E-18
   66.57750        2.4705124E-18
   66.73900        2.4720388E-18
   66.90050        2.4766910E-18
   67.06200        2.4832911E-18
   67.22350        2.4903128E-18
   67.38500        2.4961831E-18
   67.54650        2.4995669E-18
   67.70800        2.4996147E-18
   67.86950        2.4961329E-18
   68.03100        2.4896503E-18
   68.19250        2.4813491E-18
   68.35400        2.4728544E-18
   68.51550        2.4659005E-18
   68.67700        2.4619482E-18
   68.83850        2.4618367E-18
   69.00000        2.4655690E-18
   69.16150        2.4723000E-18
   69.32300        2.4805246E-18
   69.48450        2.4884174E-18
   69.64600        2.4942358E-18
   69.80750        2.4966732E-18
   69.96900        2.4951057E-18
   70.13050        2.4896846E-18
   70.29200        2.4812875E-18
   70.45350        2.4713446E-18
   70.61500        2.4615822E-18
   70.77650        2.4537157E-18
   70.93800        2.4491308E-18
   71.09950        2.4486019E-18
   71.26100        2.4521095E-18
   71.42250        2.4588119E-18
   71.58400        2.4671950E-18
   71.74550        2.4753889E-18
   71.90700        2.4815774E-18
   72.06850        2.4844049E-18
   72.23000        2.4832680E-18
   72.39150        2.4784341E-18
   72.55300        2.4709496E-18
   72.71450        2.4623864E-18
   72.87600        2.4544974E-18
   73.03750        2.4488560E-18
   73.19900        2.4465500E-18
   73.36050        2.4479763E-18
   73.52200        2.4527603E-18
   73.68350        2.4598101E-18
   73.84500        2.4675081E-18
   74.00650        2.4740124E-18
   74.16800        2.4776369E-18
   74.32950        2.4772213E-18
   74.49100        2.4724168E-18
   74.65250        2.4637992E-18
   74.81400        2.4527698E-18
   74.97550        2.4412625E-18
   75.13700        2.4313210E-18
   75.29850        2.4246672E-18
   75.46000        2.4223484E-18
   75.62150        2.4245526E-18
   75.78300        2.4306036E-18
   75.94450        2.4391259E-18
   76.10600        2.4483239E-18
   76.26750        2.4563192E-18
   76.42900        2.4614968E-18
   76.59050        2.4628056E-18
   76.75200        2.4599702E-18
   76.91350        2.4535699E-18
   77.07500        2.4449482E-18
   77.23650        2.4359572E-18
   77.39800        2.4285671E-18
   77.55950        2.4244271E-18
   77.72100        2.4244881E-18
   77.88250        2.4287778E-18
   78.04400        2.4364020E-18
   78.20550        2.4457510E-18
   78.36700        2.4548667E-18
   78.52850        2.4618684E-18
   78.69000        2.4653312E-18
   78.85150        2.4645551E-18
   79.01300        2.4596792E-18
   79.17450        2.4516382E-18
   79.33600        2.4419832E-18
   79.49750        2.4325909E-18
   79.65900        2.4253097E-18
   79.82050        2.4215894E-18
   79.98200        2.4221643E-18
   80.14350        2.4268685E-18
   80.30500        2.4346275E-18
   80.46650        2.4436663E-18
   80.62800        2.4518796E-18
   80.78950        2.4573019E-18
   80.95100        2.4585415E-18
   81.11250        2.4550826E-18
   81.27400        2.4473886E-18
   81.43550        2.4367785E-18
   81.59700        2.4251374E-18
   81.75850        2.4145197E-18
   81.92000        2.4067430E-18
   82.08150        2.4030391E-18
   82.24300        2.4038191E-18
   82.40450        2.4085926E-18
   82.56600        2.4160465E-18
   82.72750        2.4242918E-18
   82.88900        2.4312412E-18
   83.05050        2.4350504E-18
   83.21200        2.4345359E-18
   83.37350        2.4294659E-18
   83.53500        2.4206394E-18
   83.69650        2.4097310E-18
   83.85800        2.3989247E-18
   84.01950        2.3904364E-18
   84.18100        2.3860331E-18
   84.34250        2.3866663E-18
   84.50400        2.3922884E-18
   84.66550        2.4018786E-18
   84.82700        2.4136539E-18
   84.98850        2.4254114E-18
   85.15000        2.4349426E-18
   85.31150        2.4404461E-18
   85.47300        2.4408756E-18
   85.63450        2.4361596E-18
   85.79600        2.4272389E-18
   85.95750        2.4159015E-18
   86.11900        2.4044250E-18
   86.28050        2.3950942E-18
   86.44200        2.3896973E-18
   86.60350        2.3891321E-18
   86.76500        2.3932126E-18
   86.92650        2.4007251E-18
   87.08800        2.4097155E-18
   87.24950        2.4179331E-18
   87.41100        2.4233154E-18
   87.57250        2.4244128E-18
   87.73400        2.4206690E-18
   87.89550        2.4125192E-18
   88.05700        2.4013055E-18
   88.21850        2.3890186E-18
   88.38000        2.3779232E-18
   88.54150        2.3701130E-18
   88.70300        2.3670813E-18
   88.86450        2.3693888E-18
   89.02600        2.3765108E-18
   89.18750        2.3869163E-18
   89.34900        2.3983719E-18
   89.51050        2.4084195E-18
   89.67200        2.4149095E-18
   89.83350        2.4164671E-18
   89.99500        2.4127777E-18
   90.15650        2.4046345E-18
   90.31800        2.3937470E-18
   90.47950        2.3823695E-18
   90.64100        2.3728342E-18
   90.80250        2.3670861E-18
   90.96400        2.3663021E-18
   91.12550        2.3706612E-18
   91.28700        2.3792967E-18
   91.44850        2.3904527E-18
   91.61000        2.4018202E-18
   91.77150        2.4110028E-18
   91.93300        2.4160221E-18
   92.09450        2.4157516E-18
   92.25600        2.4101791E-18
   92.41750        2.4004186E-18
   92.57900        2.3884733E-18
   92.74050        2.3767949E-18
   92.90200        2.3677526E-18
   93.06350        2.3631330E-18
   93.22500        2.3637850E-18
   93.38650        2.3694684E-18
   93.54800        2.3789284E-18
   93.70950        2.3901599E-18
   93.87100        2.4008076E-18
   94.03250        2.4086228E-18
   94.19400        2.4119054E-18
   94.35550        2.4098482E-18
   94.51700        2.4027175E-18
   94.67850        2.3918200E-18
   94.84000        2.3792560E-18
   95.00150        2.3674800E-18
   95.16300        2.3587721E-18
   95.32450        2.3547311E-18
   95.48600        2.3559190E-18
   95.64750        2.3617394E-18
   95.80900        2.3705797E-18
   95.97050        2.3801771E-18
   96.13200        2.3881120E-18
   96.29350        2.3923209E-18
   96.45500        2.3915160E-18
   96.61650        2.3854381E-18
   96.77800        2.3749067E-18
   96.93950        2.3616662E-18
   97.10100        2.3480568E-18
   97.26250        2.3365675E-18
   97.42400        2.3293408E-18
   97.58550        2.3277322E-18
   97.74700        2.3320076E-18
   97.90850        2.3412603E-18
   98.07000        2.3535787E-18
   98.23150        2.3664426E-18
   98.39300        2.3772602E-18
   98.55450        2.3839194E-18
   98.71600        2.3852318E-18
   98.87750        2.3811614E-18
   99.03900        2.3728021E-18
   99.20050        2.3621137E-18
   99.36200        2.3514948E-18
   99.52350        2.3432796E-18
   99.68500        2.3392639E-18
   99.84650        2.3403436E-18
   100.0080        2.3463284E-18
   100.1695        2.3559651E-18
   100.3310        2.3671765E-18
   100.4925        2.3774761E-18
   100.6540        2.3844848E-18
   100.8155        2.3864492E-18
   100.9770        2.3826402E-18
   101.1385        2.3735350E-18
   101.3000        2.3607367E-18
   101.4615        2.3466372E-18
   101.6230        2.3339104E-18
   101.7845        2.3249435E-18
   101.9460        2.3213453E-18
   102.1075        2.3236273E-18
   102.2690        2.3311128E-18
   102.4305        2.3420885E-18
   102.5920        2.3541496E-18
   102.7535        2.3646699E-18
   102.9150        2.3713208E-18
   103.0765        2.3725360E-18
   103.2380        2.3678392E-18
   103.3995        2.3579685E-18
   103.5610        2.3447533E-18
   103.7225        2.3307549E-18
   103.8840        2.3187380E-18
   104.0455        2.3110820E-18
   104.2070        2.3092658E-18
   104.3685        2.3135479E-18
   104.5300        2.3229180E-18
   104.6915        2.3353244E-18
   104.8530        2.3481219E-18
   105.0145        2.3586302E-18
   105.1760        2.3646858E-18
   105.3375        2.3650709E-18
   105.4990        2.3597438E-18
   105.6605        2.3498392E-18
   105.8220        2.3374377E-18
   105.9835        2.3251507E-18
   106.1450        2.3155966E-18
   106.3065        2.3108585E-18
   106.4680        2.3120358E-18
   106.6295        2.3189876E-18
   106.7910        2.3303380E-18
   106.9525        2.3437457E-18
   107.1140        2.3563979E-18
   107.2755        2.3656135E-18
   107.4370        2.3694187E-18
   107.5985        2.3669655E-18
   107.7600        2.3586993E-18
   107.9215        2.3462509E-18
   108.0830        2.3320798E-18
   108.2445        2.3189618E-18
   108.4060        2.3094231E-18
   108.5675        2.3052314E-18
   108.7290        2.3070427E-18
   108.8905        2.3142667E-18
   109.0520        2.3251764E-18
   109.2135        2.3372542E-18
   109.3750        2.3477048E-18
   109.5365        2.3540454E-18
   109.6980        2.3546403E-18
   109.8595        2.3490676E-18
   110.0210        2.3382241E-18
   110.1825        2.3241409E-18
   110.3440        2.3095489E-18
   110.5055        2.2972979E-18
   110.6670        2.2897542E-18
   110.8285        2.2883141E-18
   110.9900        2.2931291E-18
   111.1515        2.3030938E-18
   111.3130        2.3160774E-18
   111.4745        2.3293617E-18
   111.6360        2.3401823E-18
   111.7975        2.3462784E-18
   111.9590        2.3463514E-18
   112.1205        2.3403342E-18
   112.2820        2.3294138E-18
   112.4435        2.3157970E-18
   112.6050        2.3022521E-18
   112.7665        2.2915163E-18
   112.9280        2.2857054E-18
   113.0895        2.2858522E-18
   113.2510        2.2916882E-18
   113.4125        2.3017107E-18
   113.5740        2.3135245E-18
   113.7355        2.3243672E-18
   113.8970        2.3317030E-18
   114.0585        2.3337542E-18
   114.2200        2.3298652E-18
   114.3815        2.3206323E-18
   114.5430        2.3077822E-18
   114.7045        2.2938221E-18
   114.8660        2.2815389E-18
   115.0275        2.2734261E-18
   115.1890        2.2711638E-18
   115.3505        2.2752492E-18
   115.5120        2.2848660E-18
   115.6735        2.2980318E-18
   115.8350        2.3120012E-18
   115.9965        2.3238413E-18
   116.1580        2.3310562E-18
   116.3195        2.3321195E-18
   116.4810        2.3267900E-18
   116.6425        2.3161543E-18
   116.8040        2.3023799E-18
   116.9655        2.2882545E-18
   117.1270        2.2766035E-18
   117.2885        2.2697135E-18
   117.4500        2.2688708E-18
   117.6115        2.2741083E-18
   117.7730        2.2842001E-18
   117.9345        2.2969137E-18
   118.0960        2.3094655E-18
   118.2575        2.3191005E-18
   118.4190        2.3236767E-18
   118.5805        2.3221311E-18
   118.7420        2.3147202E-18